ITEM: TIMESTEP
0
ITEM: NUMBER OF ENTRIES
0
ITEM: BOX BOUNDS mm ff mm
-7.11219 2
0 1
-0.011213 0.141213
ITEM: ENTRIES c_bid c_quat[1] c_quat[2] c_quat[3] c_quat[4] c_pos[1] c_pos[2] c_pos[3] c_vel[1] c_vel[2] c_vel[3] 
ITEM: TIMESTEP
1000
ITEM: NUMBER OF ENTRIES
300
ITEM: BOX BOUNDS mm ff mm
-7.11219 2
0 1
-0.011213 0.141213
ITEM: ENTRIES c_bid c_quat[1] c_quat[2] c_quat[3] c_quat[4] c_pos[1] c_pos[2] c_pos[3] c_vel[1] c_vel[2] c_vel[3] 
1 0.18492 0.0722321 0.509286 -0.837386 0.777908 0.296459 0.0779192 0 -0.980509 0 
2 0.584394 0.425842 0.0866138 -0.685303 0.873306 0.183186 0.0317342 0 -0.980509 0 
3 -0.462434 0.199011 0.744267 -0.43888 0.742578 0.33608 0.0525234 0 -0.980509 0 
4 0.607674 0.0430183 0.233557 0.757847 0.760123 0.241046 0.0464813 0 -0.980509 0 
5 -0.452775 0.697981 -0.554801 -0.00367454 0.544595 0.172827 0.105373 0 -0.980509 0 
6 0.755019 -0.111401 0.22013 0.607518 0.942744 0.213866 0.039316 0 -0.980509 0 
7 -0.346037 0.633828 0.134898 -0.67847 0.859403 0.418571 0.0616553 0 -0.980509 0 
8 -0.362987 0.428599 0.802352 0.201929 0.675253 0.139681 0.0364359 0 -0.980509 0 
9 0.0682309 0.588832 -0.199907 -0.780166 0.831752 0.11541 0.0528502 0 -0.980509 0 
10 -0.107606 0.962887 -0.177561 -0.172459 0.727273 0.25014 0.0537516 0 -0.980509 0 
11 -0.408493 0.460741 0.609422 -0.499457 0.94267 0.255356 0.0730053 0 -0.980509 0 
12 0.66951 -0.166939 -0.520259 -0.503208 0.928563 0.0906831 0.0576073 0 -0.980509 0 
13 0.538664 -0.0146375 0.637837 0.550264 0.524646 0.294504 0.0614046 0 -0.980509 0 
14 0.0333752 0.126297 0.61501 0.777623 0.615152 0.0909181 0.0448694 0 -0.980509 0 
15 0.569542 0.490621 0.411703 0.515183 0.581441 0.24143 0.0574862 0 -0.980509 0 
16 -0.370889 0.309849 0.431571 0.761697 0.799294 0.242658 0.0162085 0 -0.980509 0 
17 0.193569 0.451118 0.871216 0.00254914 0.568662 0.0521982 0.0536604 0 -0.980509 0 
18 -0.379324 0.204463 0.656711 0.618902 0.797858 0.202275 0.0383731 0 -0.980509 0 
19 0.749522 0.184191 -0.617346 -0.152231 0.653053 0.252317 0.102369 0 -0.980509 0 
20 -0.459423 0.823561 0.204821 -0.262158 0.547358 0.171549 0.0356869 0 -0.980509 0 
21 0.672734 -0.255642 0.404731 0.564153 0.885928 0.327275 0.0582331 0 -0.980509 0 
22 0.0362253 0.917976 0.385865 -0.084357 0.598954 0.0511063 0.0657903 0 -0.980509 0 
23 -0.194339 0.0914686 0.925554 0.311795 0.657194 0.192569 0.0580836 0 -0.980509 0 
24 0.695401 0.00147926 -0.532545 0.482505 0.549373 0.0841086 0.0331449 0 -0.980509 0 
25 0.657678 0.547391 -0.399574 -0.328883 0.782044 0.154 0.097644 0 -0.980509 0 
26 -0.115548 0.860326 0.340764 -0.361064 0.940588 0.0976915 0.104874 0 -0.980509 0 
27 0.335615 -0.0792343 0.860608 0.37475 0.586809 0.176482 0.0634659 0 -0.980509 0 
28 0.44471 0.678526 -0.268255 -0.519494 0.804912 0.0792301 0.0347263 0 -0.980509 0 
29 0.856432 0.14266 -0.0868297 -0.4885 0.689225 0.182576 0.067782 0 -0.980509 0 
30 0.518372 0.391404 -0.485156 -0.58542 0.549043 0.125464 0.0971097 0 -0.980509 0 
31 -0.108257 -0.472406 0.693074 0.533631 0.597259 0.357184 0.0279176 0 -0.980509 0 
32 -0.278232 -0.0855642 0.733784 0.613862 0.543028 0.0787205 0.0934833 0 -0.980509 0 
33 0.167902 0.915421 0.359062 0.0699177 0.815273 0.0659461 0.0187786 0 -0.980509 0 
34 0.885999 0.351064 0.200737 -0.226857 0.571339 0.304062 0.0205613 0 -0.980509 0 
35 0.936117 -0.223114 0.157331 -0.221705 0.812692 0.113722 0.0591582 0 -0.980509 0 
36 -0.140978 -0.228596 0.447226 0.853146 0.809836 0.263941 0.0419034 0 -0.980509 0 
37 -0.31999 0.131766 0.899276 0.267482 0.799347 0.280711 0.109105 0 -0.980509 0 
38 0.778868 0.184069 0.130341 -0.58523 0.592726 0.275245 0.0391593 0 -0.980509 0 
39 0.736375 0.0838453 -0.105045 0.663089 0.717061 0.177415 0.0826166 0 -0.980509 0 
40 0.631484 0.398555 -0.410514 -0.523316 0.65582 0.315369 0.0296836 0 -0.980509 0 
41 -0.32831 -0.122005 0.758135 0.550053 0.892061 0.205583 0.0380002 0 -0.980509 0 
42 0.511838 0.34894 -0.783027 0.0559605 0.794177 0.247738 0.0614747 0 -0.980509 0 
43 -0.0521017 0.090914 0.985323 -0.134757 0.521487 0.105722 0.0458571 0 -0.980509 0 
44 -0.312112 0.526714 0.208308 0.762736 0.584237 0.364027 0.0806083 0 -0.980509 0 
45 0.949035 -0.105462 -0.0116449 0.296775 0.854893 0.311678 0.0219066 0 -0.980509 0 
46 -0.0545716 0.566019 -0.373263 0.73302 0.861674 0.319618 0.0836268 0 -0.980509 0 
47 0.269189 0.704912 0.0236659 -0.655801 0.564129 0.380477 0.0988362 0 -0.980509 0 
48 0.748641 0.273093 0.276383 -0.537187 0.787197 0.32319 0.0947173 0 -0.980509 0 
49 0.0925957 0.450937 -0.227095 0.858201 0.556003 0.139708 0.0481573 0 -0.980509 0 
50 0.324748 -0.110301 0.76756 0.541501 0.840033 0.379307 0.0834834 0 -0.980509 0 
51 0.121338 0.792493 -0.303263 0.515036 0.522224 0.419679 0.0156481 0 -0.980509 0 
52 0.800826 0.49072 -0.181706 0.291299 0.916153 0.0801296 0.114095 0 -0.980509 0 
53 0.116699 0.914481 0.123182 -0.367331 0.894834 0.365528 0.0879231 0 -0.980509 0 
54 0.895618 -0.269134 -0.266174 0.233637 0.597221 0.153865 0.0316645 0 -0.980509 0 
55 0.635742 0.411026 0.567178 -0.324344 0.86222 0.0573508 0.103284 0 -0.980509 0 
56 0.930265 0.261604 0.257022 0.010465 0.895085 0.290571 0.0379551 0 -0.980509 0 
57 0.61649 0.786858 -0.0271444 -0.00759123 0.548074 0.166507 0.0485705 0 -0.980509 0 
58 -0.0818904 0.512444 -0.639127 -0.567638 0.75838 0.185218 0.0682283 0 -0.980509 0 
59 0.532115 0.195283 -0.412532 0.713117 0.554224 0.318255 0.0583019 0 -0.980509 0 
60 0.532712 0.131349 0.599141 -0.583092 0.843638 0.345861 0.0512435 0 -0.980509 0 
61 0.626118 -0.642713 0.329356 0.293973 0.712582 0.161989 0.0677577 0 -0.980509 0 
62 0.726056 -0.0215728 -0.452388 -0.517419 0.943349 0.0724492 0.0430113 0 -0.980509 0 
63 0.875824 0.18334 -0.00555578 0.446416 0.891734 0.303188 0.0490627 0 -0.980509 0 
64 0.582144 -0.158587 0.773468 0.19418 0.917457 0.0611503 0.0679204 0 -0.980509 0 
65 0.339816 0.48475 0.649109 0.477702 0.665151 0.205816 0.0185894 0 -0.980509 0 
66 0.218592 -0.0939197 0.907132 -0.347141 0.639763 0.0782728 0.112454 0 -0.980509 0 
67 -0.165286 0.780793 -0.503974 0.33023 0.545039 0.319052 0.106956 0 -0.980509 0 
68 -0.185732 0.64114 -0.140122 -0.731306 0.571211 0.302333 0.0576194 0 -0.980509 0 
69 0.320314 0.266971 0.890821 -0.180452 0.535811 0.0536998 0.0630171 0 -0.980509 0 
70 0.194309 0.439638 0.81767 0.316825 0.618484 0.194176 0.10995 0 -0.980509 0 
71 0.635287 0.532298 0.0938472 0.551599 0.649179 0.0958568 0.0959662 0 -0.980509 0 
72 0.282789 -0.11021 -0.307148 0.901967 0.946274 0.195373 0.0361824 0 -0.980509 0 
73 0.357848 -0.132541 -0.42981 0.818316 0.574405 0.242126 0.0829298 0 -0.980509 0 
74 0.193604 0.710006 0.666364 0.119864 0.931523 0.367939 0.0167006 0 -0.980509 0 
75 0.247824 0.592033 0.756764 -0.124046 0.87193 0.271906 0.111298 0 -0.980509 0 
76 0.870667 0.407833 -0.0327952 0.273012 0.861865 0.11142 0.086964 0 -0.980509 0 
77 0.59208 -0.376939 -0.215872 0.678791 0.948684 0.283708 0.0981812 0 -0.980509 0 
78 0.88221 0.425064 0.0792804 0.186389 0.632604 0.154111 0.0659943 0 -0.980509 0 
79 -0.492837 0.659418 -0.463179 0.328245 0.91654 0.124497 0.0356162 0 -0.980509 0 
80 0.647726 0.387025 -0.487132 0.439732 0.932646 0.331614 0.0878209 0 -0.980509 0 
81 -0.213494 -0.0681935 0.76371 -0.605406 0.523341 0.287324 0.0946032 0 -0.980509 0 
82 0.870809 -0.423048 -0.0668326 -0.241362 0.914463 0.058429 0.0338994 0 -0.980509 0 
83 0.539519 0.374765 0.295851 -0.6935 0.701025 0.275097 0.0173394 0 -0.980509 0 
84 -0.458905 0.553656 -0.486499 -0.496176 0.787958 0.221864 0.0455405 0 -0.980509 0 
85 0.677958 -0.501142 -0.423912 -0.33095 0.928189 0.245155 0.111501 0 -0.980509 0 
86 -0.0126254 0.612758 -0.0375983 -0.789275 0.928722 0.17713 0.0858919 0 -0.980509 0 
87 0.587193 0.31416 -0.273027 -0.694236 0.866053 0.391796 0.0590662 0 -0.980509 0 
88 -0.49433 0.828279 -0.262731 -0.023752 0.611118 0.221943 0.078666 0 -0.980509 0 
89 -0.0264979 -0.35713 0.554622 0.7511 0.670977 0.0961017 0.0250414 0 -0.980509 0 
90 -0.0092182 0.652489 0.656721 -0.37801 0.804352 0.130276 0.0164588 0 -0.980509 0 
91 0.470195 0.168979 0.85972 -0.106038 0.93008 0.214619 0.103141 0 -0.980509 0 
92 -0.360339 0.558163 0.541824 0.514817 0.862751 0.367161 0.0489206 0 -0.980509 0 
93 0.710553 0.16673 0.680641 -0.0635886 0.537574 0.408064 0.111925 0 -0.980509 0 
94 0.251676 0.945964 0.0732351 -0.190912 0.623791 0.3663 0.0319508 0 -0.980509 0 
95 0.285518 -0.002923 0.577872 0.764549 0.690552 0.125532 0.0825914 0 -0.980509 0 
96 -0.149563 -0.123187 0.740417 0.643614 0.55746 0.116293 0.0629147 0 -0.980509 0 
97 0.0418211 0.714569 -0.243102 0.654632 0.53117 0.288096 0.0352445 0 -0.980509 0 
98 0.279606 0.133549 -0.1659 0.936196 0.730953 0.17421 0.0180745 0 -0.980509 0 
99 -0.454087 0.0705053 0.0755861 0.884941 0.837307 0.168718 0.0404415 0 -0.980509 0 
100 -0.0972201 0.402902 0.867454 0.275213 0.930038 0.362923 0.0415435 0 -0.980509 0 
101 0.889323 0.0174638 -0.303534 0.341565 0.593254 0.137596 0.0735093 0 -0.980509 0 
102 0.0635708 -0.397955 -0.0664795 0.912782 0.799575 0.240507 0.0814549 0 -0.980509 0 
103 0.380991 -0.353564 0.853407 0.0391742 0.550394 0.43661 0.054153 0 -0.980509 0 
104 0.503623 -0.492988 0.694519 -0.144812 0.714532 0.251739 0.0757552 0 -0.980509 0 
105 -0.186214 -0.446594 0.642122 -0.594607 0.574902 0.414193 0.0645183 0 -0.980509 0 
106 -0.311199 0.241736 -0.146209 0.907382 0.749017 0.201787 0.0880036 0 -0.980509 0 
107 0.732763 0.25662 -0.570272 -0.268317 0.828833 0.0737555 0.0317771 0 -0.980509 0 
108 0.824072 -0.466937 0.283683 0.149666 0.835693 0.134171 0.0836329 0 -0.980509 0 
109 -0.321012 0.519202 -0.76158 0.21766 0.57621 0.0598625 0.0570301 0 -0.980509 0 
110 0.266158 0.0181677 0.815103 -0.514234 0.521703 0.275625 0.036292 0 -0.980509 0 
111 0.749367 0.0677922 0.651788 -0.094999 0.753623 0.205511 0.0360933 0 -0.980509 0 
112 -0.353879 -0.00104746 0.567793 -0.743223 0.583046 0.13307 0.0574457 0 -0.980509 0 
113 0.803586 -0.0516801 0.460038 -0.374089 0.88336 0.177769 0.0715598 0 -0.980509 0 
114 0.432059 -0.0791954 0.697193 0.566547 0.525018 0.0982951 0.0413316 0 -0.980509 0 
115 0.616637 -0.597442 0.428961 -0.280739 0.757109 0.318868 0.0351011 0 -0.980509 0 
116 0.607291 0.0113645 -0.793796 -0.030924 0.690074 0.261022 0.0808488 0 -0.980509 0 
117 -0.0417845 0.33141 -0.00762513 0.94253 0.606353 0.131869 0.110059 0 -0.980509 0 
118 0.155796 0.769379 0.287602 0.548697 0.757577 0.426756 0.0532897 0 -0.980509 0 
119 -0.370747 0.701056 -0.130976 -0.594906 0.669445 0.139006 0.0992158 0 -0.980509 0 
120 0.625963 -0.328155 0.563005 -0.42838 0.582867 0.136348 0.0318352 0 -0.980509 0 
121 -0.272795 0.597187 -0.70196 0.276049 0.733435 0.187727 0.111255 0 -0.980509 0 
122 0.518744 0.458441 0.699864 -0.175861 0.751415 0.0928694 0.0435531 0 -0.980509 0 
123 0.60555 0.562165 0.543153 -0.149209 0.914661 0.351276 0.101755 0 -0.980509 0 
124 0.823489 -0.460989 -0.177823 0.278807 0.944964 0.118451 0.0294966 0 -0.980509 0 
125 -0.248033 0.518476 -0.677444 -0.459054 0.712309 0.286581 0.0731083 0 -0.980509 0 
126 0.25948 0.683062 -0.467047 -0.49796 0.632823 0.377622 0.101738 0 -0.980509 0 
127 -0.298768 -0.211225 0.894602 0.256534 0.945689 0.257335 0.0873612 0 -0.980509 0 
128 -0.164228 -0.340193 -0.409016 0.830664 0.841248 0.182693 0.0590964 0 -0.980509 0 
129 0.703877 -0.509719 0.435642 -0.234436 0.641144 0.0622253 0.0847114 0 -0.980509 0 
130 0.331224 -0.386141 0.681074 0.526615 0.693191 0.185377 0.0383807 0 -0.980509 0 
131 0.165456 -0.271132 0.553301 -0.770045 0.777627 0.29716 0.0224732 0 -0.980509 0 
132 0.492774 0.583612 -0.621968 -0.172413 0.66332 0.373952 0.0837049 0 -0.980509 0 
133 -0.447822 0.698673 0.301307 0.469601 0.617153 0.174046 0.0281856 0 -0.980509 0 
134 0.642264 0.487678 -0.528166 -0.26591 0.562329 0.247807 0.0523675 0 -0.980509 0 
135 -0.15847 -0.0404452 0.543492 0.823328 0.676163 0.366909 0.0915555 0 -0.980509 0 
136 -0.430792 0.698326 -0.279547 -0.49861 0.810032 0.126928 0.0490171 0 -0.980509 0 
137 -0.267574 0.467191 0.798964 0.267944 0.628954 0.282082 0.0678708 0 -0.980509 0 
138 0.751626 -0.0957742 -0.404935 -0.511774 0.948821 0.413785 0.0529007 0 -0.980509 0 
139 -0.00807559 0.0947914 0.829789 0.549908 0.936404 0.292836 0.0545321 0 -0.980509 0 
140 0.734375 0.586245 0.234265 -0.249257 0.590177 0.42856 0.0306646 0 -0.980509 0 
141 -0.107616 -0.25844 0.588142 -0.75876 0.840245 0.0989681 0.0689221 0 -0.980509 0 
142 0.718271 -0.203444 0.220459 -0.62777 0.816388 0.310776 0.0329938 0 -0.980509 0 
143 -0.303017 0.624718 0.339577 -0.634505 0.611634 0.293904 0.0396498 0 -0.980509 0 
144 -0.196679 0.888298 0.411843 0.0512799 0.904473 0.269165 0.093372 0 -0.980509 0 
145 -0.301847 0.574556 0.111955 0.752489 0.939367 0.206547 0.0893797 0 -0.980509 0 
146 -0.121584 0.119924 0.124135 0.977459 0.947771 0.398276 0.0880059 0 -0.980509 0 
147 -0.30885 0.936953 -0.146034 -0.0735208 0.92849 0.152563 0.061858 0 -0.980509 0 
148 0.792168 0.280661 -0.386805 0.379581 0.929453 0.406375 0.114428 0 -0.980509 0 
149 0.784514 0.450676 -0.27811 -0.322621 0.905561 0.0788706 0.0244084 0 -0.980509 0 
150 0.194727 0.455362 0.811163 -0.311034 0.635758 0.264867 0.0367586 0 -0.980509 0 
151 -0.21042 0.759801 -0.410896 -0.457811 0.939406 0.414443 0.0164574 0 -0.980509 0 
152 0.375201 -0.311609 0.78299 0.386071 0.927421 0.238243 0.0687754 0 -0.980509 0 
153 0.0369972 -0.119536 0.650072 0.749499 0.53331 0.140358 0.0798247 0 -0.980509 0 
154 0.0935562 0.869917 -0.1405 -0.463414 0.556401 0.366931 0.0818991 0 -0.980509 0 
155 -0.32195 0.432499 0.473198 0.69669 0.837799 0.247075 0.076815 0 -0.980509 0 
156 0.897904 0.0201423 -0.13064 -0.419876 0.622956 0.103552 0.0273981 0 -0.980509 0 
157 -0.390143 0.317137 0.227541 0.833929 0.7482 0.2244 0.103005 0 -0.980509 0 
158 0.612769 -0.167539 -0.752919 0.171923 0.947756 0.166096 0.0248463 0 -0.980509 0 
159 -0.355135 -0.367767 0.219017 0.831059 0.89578 0.355018 0.0274866 0 -0.980509 0 
160 0.780878 -0.411682 -0.253953 0.395292 0.787874 0.108161 0.0937989 0 -0.980509 0 
161 0.912152 -0.311934 -0.0430751 0.262338 0.834704 0.268611 0.0671504 0 -0.980509 0 
162 -0.179694 0.632326 -0.642762 -0.393359 0.914553 0.256031 0.106913 0 -0.980509 0 
163 0.818877 0.327808 -0.0457772 0.46892 0.659977 0.102806 0.0946199 0 -0.980509 0 
164 0.206323 0.931059 -0.299435 0.0299791 0.82555 0.340449 0.112288 0 -0.980509 0 
165 0.741521 0.0646557 0.624054 0.237744 0.603602 0.312803 0.0488036 0 -0.980509 0 
166 -0.407001 0.138822 -0.371952 0.822636 0.676032 0.318855 0.0789947 0 -0.980509 0 
167 -0.269537 0.724419 0.0714238 0.630448 0.770702 0.425045 0.063918 0 -0.980509 0 
168 -0.37887 0.286933 0.577986 -0.66337 0.799646 0.145825 0.0519097 0 -0.980509 0 
169 -0.361233 0.448497 0.384363 0.721544 0.700521 0.394741 0.033388 0 -0.980509 0 
170 0.0344219 0.707065 -0.702654 -0.0717728 0.720859 0.362887 0.091746 0 -0.980509 0 
171 -0.0116487 0.00180085 0.998203 -0.0587532 0.823653 0.291887 0.0641192 0 -0.980509 0 
172 0.507105 -0.648992 0.460693 -0.33078 0.721311 0.237618 0.0427961 0 -0.980509 0 
173 -0.25096 0.938634 0.0465478 0.231988 0.814554 0.43206 0.0386554 0 -0.980509 0 
174 0.541268 0.0453608 0.74567 -0.385937 0.851645 0.326527 0.0159341 0 -0.980509 0 
175 0.312722 0.00660164 0.015069 0.949702 0.946196 0.170029 0.0498478 0 -0.980509 0 
176 -0.0790805 0.42885 0.417963 0.796957 0.893815 0.425571 0.0741066 0 -0.980509 0 
177 0.656052 0.746293 -0.0103346 -0.111962 0.540258 0.380557 0.0333853 0 -0.980509 0 
178 0.594209 0.385467 0.667339 0.230195 0.526773 0.34396 0.0647319 0 -0.980509 0 
179 -0.100188 0.407178 -0.408922 0.810526 0.707378 0.39104 0.0826998 0 -0.980509 0 
180 0.366029 0.528391 0.0314409 0.7654 0.665265 0.389424 0.0919925 0 -0.980509 0 
181 0.187105 0.873866 -0.365502 -0.260305 0.572289 0.359118 0.0528683 0 -0.980509 0 
182 -0.441468 -0.292161 0.695492 0.485838 0.744428 0.0553625 0.0489947 0 -0.980509 0 
183 0.590913 0.16255 0.741935 -0.271903 0.731236 0.196178 0.0200329 0 -0.980509 0 
184 0.524893 0.53767 0.126988 -0.647513 0.897902 0.329376 0.0848139 0 -0.980509 0 
185 0.811194 -0.400232 -0.0717955 0.420266 0.787188 0.185077 0.0763036 0 -0.980509 0 
186 0.362423 -0.265522 0.134292 0.88324 0.643893 0.2491 0.0856593 0 -0.980509 0 
187 0.308234 -0.328732 0.833379 -0.320009 0.822238 0.173556 0.0681255 0 -0.980509 0 
188 0.412297 -0.403351 0.790401 0.20636 0.866726 0.107206 0.0811826 0 -0.980509 0 
189 -0.323689 -0.0454611 -0.040605 0.944198 0.653207 0.268474 0.0888576 0 -0.980509 0 
190 0.911936 -0.165267 0.372492 0.0480463 0.628056 0.240276 0.11107 0 -0.980509 0 
191 0.524989 -0.403991 0.612008 -0.432 0.756932 0.341193 0.037081 0 -0.980509 0 
192 -0.206703 0.180946 0.732745 0.622589 0.549894 0.233701 0.0815357 0 -0.980509 0 
193 0.585132 0.609598 0.343145 0.410198 0.800875 0.169451 0.0221699 0 -0.980509 0 
194 0.816303 0.0608765 -0.419742 -0.392122 0.538061 0.41892 0.02652 0 -0.980509 0 
195 0.82456 0.213251 0.414781 0.320284 0.591067 0.341271 0.065088 0 -0.980509 0 
196 0.70823 -0.209209 -0.420623 -0.52699 0.646566 0.429365 0.112485 0 -0.980509 0 
197 -0.452577 -0.142363 0.380165 0.793966 0.643863 0.170136 0.096962 0 -0.980509 0 
198 0.683718 -0.659961 -0.30181 -0.0767575 0.672822 0.135862 0.0892233 0 -0.980509 0 
199 0.757726 -0.036886 0.521369 0.390725 0.824315 0.233147 0.0546739 0 -0.980509 0 
200 -0.273129 0.242062 0.862677 -0.350135 0.94896 0.184874 0.0221227 0 -0.980509 0 
201 0.89969 0.0743127 -0.062607 -0.425578 0.564985 0.158253 0.068151 0 -0.980509 0 
202 -0.271379 0.875001 0.399435 -0.0343155 0.670604 0.264214 0.0899496 0 -0.980509 0 
203 -0.196367 0.75924 0.377845 0.492167 0.852555 0.148352 0.0676314 0 -0.980509 0 
204 0.221321 0.956729 0.0243612 -0.187334 0.849317 0.329496 0.0903895 0 -0.980509 0 
205 -0.124755 0.908982 0.397654 0.0076425 0.828366 0.377911 0.0161757 0 -0.980509 0 
206 0.330388 0.317694 0.768329 -0.44675 0.776202 0.42701 0.0208221 0 -0.980509 0 
207 0.887003 0.00420711 -0.140216 -0.439941 0.755409 0.141123 0.0916469 0 -0.980509 0 
208 -0.303861 0.572342 0.336714 0.683166 0.538022 0.220801 0.0786935 0 -0.980509 0 
209 0.306703 0.547139 -0.772701 0.0974981 0.593598 0.310433 0.0910909 0 -0.980509 0 
210 -0.103381 0.474608 0.748843 0.450882 0.776301 0.374133 0.0446197 0 -0.980509 0 
211 -0.386126 -0.311429 -0.450697 0.742153 0.598591 0.372637 0.0579368 0 -0.980509 0 
212 -0.370173 -0.26711 0.0254754 0.889368 0.683907 0.237452 0.0416567 0 -0.980509 0 
213 0.873139 -0.000910492 0.305274 0.380046 0.601623 0.180547 0.0410168 0 -0.980509 0 
214 -0.0977629 -0.399219 0.902665 -0.127523 0.800283 0.115192 0.0393102 0 -0.980509 0 
215 0.512374 0.643245 -0.00191346 -0.568951 0.870442 0.205028 0.104318 0 -0.980509 0 
216 0.50252 0.704699 -0.492188 -0.092866 0.949827 0.153331 0.088105 0 -0.980509 0 
217 0.0249233 0.861774 0.492231 0.120137 0.846515 0.120486 0.0835108 0 -0.980509 0 
218 0.400263 0.758088 -0.363357 0.364779 0.784072 0.261054 0.113072 0 -0.980509 0 
219 0.159903 0.586579 0.6966 0.380926 0.94311 0.330574 0.0205777 0 -0.980509 0 
220 0.0773028 -0.277671 0.0873926 0.953565 0.711864 0.138234 0.0532628 0 -0.980509 0 
221 0.558139 0.699821 0.187252 -0.40456 0.875181 0.303238 0.0618155 0 -0.980509 0 
222 0.743187 0.656389 0.0931454 0.0902778 0.64392 0.263707 0.0589717 0 -0.980509 0 
223 -0.370563 0.389216 0.708234 -0.45782 0.655943 0.239485 0.0841411 0 -0.980509 0 
224 -0.114526 0.553083 -0.582483 -0.584549 0.753067 0.323976 0.0976063 0 -0.980509 0 
225 -0.290176 0.0192906 0.742194 0.603799 0.797985 0.185452 0.0520217 0 -0.980509 0 
226 -0.0926064 -0.196462 -0.269872 0.938081 0.621563 0.328066 0.080645 0 -0.980509 0 
227 0.214697 0.103581 0.706579 -0.666275 0.93129 0.326755 0.0724088 0 -0.980509 0 
228 0.936695 -0.247426 0.116417 0.218698 0.816581 0.116089 0.10804 0 -0.980509 0 
229 -0.340049 0.798623 -0.368365 -0.332979 0.648995 0.410722 0.0813345 0 -0.980509 0 
230 -0.215069 0.450259 -0.447068 0.74239 0.87998 0.12652 0.0346454 0 -0.980509 0 
231 0.275337 -0.062085 0.502033 -0.817495 0.867306 0.38308 0.0354179 0 -0.980509 0 
232 0.506963 -0.768536 -0.340067 0.191561 0.543233 0.0800123 0.0213913 0 -0.980509 0 
233 -0.214061 0.717443 -0.662723 0.0158514 0.596517 0.348988 0.0899229 0 -0.980509 0 
234 -0.125857 0.904342 0.113917 0.391597 0.646696 0.0646495 0.0707819 0 -0.980509 0 
235 0.558122 -0.645216 0.0829566 0.515087 0.634126 0.338463 0.066305 0 -0.980509 0 
236 0.632817 0.617138 -0.327094 -0.334204 0.874286 0.314123 0.0962663 0 -0.980509 0 
237 -0.108602 0.712188 -0.693531 0.00294797 0.707097 0.407262 0.0436892 0 -0.980509 0 
238 0.659663 -0.194094 -0.72012 -0.0927355 0.731404 0.43609 0.0728625 0 -0.980509 0 
239 0.431302 0.464132 -0.457082 0.624208 0.934845 0.30983 0.0570988 0 -0.980509 0 
240 0.885727 -0.150053 -0.418817 0.132529 0.753935 0.294453 0.047776 0 -0.980509 0 
300 -0.353555 0.849473 -0.355937 0.16341 0.619886 0.464987 0.10252 0 -0.980509 0 
245 -0.200355 0.387126 0.344417 0.831486 0.742948 0.466619 0.0329412 0 -0.980509 0 
250 0.432163 0.510877 0.426128 0.608814 0.66077 0.467119 0.0512329 0 -0.980509 0 
246 0.123525 -0.338495 0.695598 -0.621536 0.683439 0.467572 0.0606552 0 -0.980509 0 
286 0.0571038 0.901287 0.169899 0.394404 0.795013 0.469642 0.0540875 0 -0.980509 0 
257 0.313642 0.785098 0.271074 -0.460183 0.714833 0.476936 0.0318991 0 -0.980509 0 
285 -0.305476 0.940119 -0.0149349 -0.150456 0.888117 0.476189 0.0848947 0 -0.980509 0 
287 0.629648 0.324458 0.187415 0.680549 0.597246 0.47534 0.105102 0 -0.980509 0 
243 0.00878121 -0.456168 0.07301 0.88685 0.646293 0.479154 0.0235507 0 -0.980509 0 
297 0.488648 -0.0445327 0.597259 -0.634446 0.923476 0.477606 0.103789 0 -0.980509 0 
259 0.869693 -0.443056 -0.0369345 0.21441 0.874072 0.477868 0.0949864 0 -0.980509 0 
268 0.647263 0.567577 -0.00497822 -0.508804 0.533874 0.479239 0.049948 0 -0.980509 0 
251 -0.0111631 0.563797 -0.307249 0.766555 0.803101 0.480374 0.0276262 0 -0.980509 0 
260 -0.0447194 0.602163 -0.790323 0.103872 0.671724 0.480256 0.0345114 0 -0.980509 0 
272 0.817139 0.0574213 0.560004 0.124022 0.756384 0.481169 0.0802613 0 -0.980509 0 
284 0.410795 0.649498 0.408501 0.492471 0.595891 0.479733 0.0496686 0 -0.980509 0 
242 0.876101 0.458511 0.0779387 0.127043 0.702785 0.484877 0.0964024 0 -0.980509 0 
298 0.796348 0.122902 -0.421945 -0.415556 0.852634 0.484617 0.0253282 0 -0.980509 0 
252 0.105975 0.868791 0.319978 0.362748 0.558923 0.486755 0.0631119 0 -0.980509 0 
267 0.720786 -0.567554 -0.388644 0.0854758 0.67976 0.488128 0.0485814 0 -0.980509 0 
271 0.374072 -0.432673 0.0394986 0.819331 0.850537 0.489372 0.0455391 0 -0.980509 0 
274 0.0955815 0.726889 0.0520975 0.678073 0.935529 0.488903 0.059169 0 -0.980509 0 
275 0.445307 -0.240882 0.461786 0.728307 0.728064 0.489278 0.0638581 0 -0.980509 0 
293 -0.189044 0.961625 0.14172 0.139482 0.626519 0.491049 0.0404085 0 -0.980509 0 
279 0.784997 0.392513 0.399852 -0.264258 0.687794 0.490233 0.0193016 0 -0.980509 0 
278 -0.365724 0.618662 0.362413 0.593431 0.658065 0.491445 0.0823374 0 -0.980509 0 
283 0.666303 -0.502937 0.121347 0.537 0.80638 0.495382 0.0566147 0 -0.980509 0 
256 0.106589 0.938177 -0.124999 -0.304693 0.889376 0.494265 0.0941959 0 -0.980509 0 
241 0.0458404 0.0188477 0.870404 0.489837 0.920928 0.521676 0.0782619 0 -0.980509 0 
294 0.523557 -0.031531 -0.450871 -0.722225 0.693182 0.550817 0.0607484 0 -0.980509 0 
292 -0.250819 0.0301325 -0.284475 0.924801 0.591606 0.530136 0.070758 0 -0.980509 0 
244 0.461972 0.524822 0.252639 0.668818 0.571397 0.542372 0.0209345 0 -0.980509 0 
299 0.954505 -0.0757737 -0.17639 0.228177 0.576995 0.523053 0.020511 0 -0.980509 0 
291 0.272999 0.6424 -0.182451 0.692463 0.744594 0.50154 0.0571917 0 -0.980509 0 
247 -0.116226 0.678591 -0.570834 -0.447385 0.633921 0.523038 0.0778928 0 -0.980509 0 
248 0.069902 0.752492 0.410057 0.51061 0.686165 0.524438 0.102565 0 -0.980509 0 
249 0.352825 -0.366699 0.851584 -0.1259 0.532562 0.549648 0.113538 0 -0.980509 0 
276 0.341932 0.883402 -0.275782 -0.163176 0.767401 0.544239 0.0964967 0 -0.980509 0 
288 0.258467 -0.249756 0.631732 -0.686827 0.692231 0.532224 0.0696261 0 -0.980509 0 
282 0.78776 -0.123186 -0.473327 -0.374462 0.619336 0.518096 0.114165 0 -0.980509 0 
253 -0.407502 0.633301 -0.379387 -0.537529 0.58882 0.540182 0.104673 0 -0.980509 0 
254 0.53507 -0.720926 0.440279 -0.0109784 0.661193 0.516885 0.0645147 0 -0.980509 0 
255 -0.0827933 -0.314317 -0.161526 0.931804 0.925119 0.501853 0.0236503 0 -0.980509 0 
273 0.603278 -0.530873 -0.15873 -0.573615 0.724139 0.549597 0.0517126 0 -0.980509 0 
295 0.175209 0.239233 0.938502 0.176873 0.924304 0.516165 0.0589067 0 -0.980509 0 
258 0.325711 -0.248341 0.818341 0.403184 0.61683 0.521791 0.0202111 0 -0.980509 0 
290 0.979799 0.199974 -0.000566848 0.00200712 0.778804 0.512404 0.05 0 -0.980509 0 
277 -0.271241 0.656532 0.403805 0.576485 0.581292 0.517865 0.032685 0 -0.980509 0 
261 0.742682 -0.529051 -0.336559 -0.23507 0.639428 0.54841 0.0934254 0 -0.980509 0 
262 0.686772 -0.023136 -0.726275 0.0182709 0.928764 0.548661 0.112213 0 -0.980509 0 
263 0.142932 0.697568 0.525591 0.465536 0.793182 0.510819 0.102661 0 -0.980509 0 
264 0.185533 -0.457779 -0.424234 0.758974 0.6234 0.500394 0.104238 0 -0.980509 0 
265 0.248488 0.54982 0.0314375 0.796846 0.623451 0.501438 0.0469399 0 -0.980509 0 
266 0.411432 0.651749 0.634038 0.0627919 0.578373 0.506027 0.0717345 0 -0.980509 0 
281 0.179555 0.275337 -0.386341 0.861795 0.872448 0.53175 0.10371 0 -0.980509 0 
289 0.702987 0.152921 0.22837 -0.655952 0.526087 0.543623 0.0516847 0 -0.980509 0 
269 0.120986 -0.110588 -0.0505624 0.985178 0.825266 0.51705 0.0383232 0 -0.980509 0 
270 0.683009 0.0181143 -0.0811447 0.725663 0.711267 0.536853 0.0670988 0 -0.980509 0 
280 0.668312 0.565464 0.209829 -0.43541 0.838211 0.513558 0.0411368 0 -0.980509 0 
296 0.318152 -0.347695 0.495068 0.729928 0.690821 0.521992 0.0876598 0 -0.980509 0 
ITEM: TIMESTEP
2000
ITEM: NUMBER OF ENTRIES
300
ITEM: BOX BOUNDS mm ff mm
-7.11219 2
0 1
-0.011213 0.141213
ITEM: ENTRIES c_bid c_quat[1] c_quat[2] c_quat[3] c_quat[4] c_pos[1] c_pos[2] c_pos[3] c_vel[1] c_vel[2] c_vel[3] 
1 0.18492 0.0722321 0.509286 -0.837386 0.777908 0.149358 0.0779192 0 -1.96151 0 
2 -0.233819 0.241022 -0.0399453 -0.941085 0.876376 0.0431355 0.0311994 0.508991 -0.878459 -0.0856728 
3 -0.462434 0.199011 0.744267 -0.43888 0.742578 0.188979 0.0525234 0 -1.96151 0 
4 0.607674 0.0430183 0.233557 0.757847 0.760123 0.0939455 0.0464813 0 -1.96151 0 
5 -0.22988 -0.220069 -0.947521 0.0304818 0.545213 0.0327012 0.108336 0.0971359 -0.847481 0.481517 
6 0.755019 -0.111401 0.22013 0.607518 0.942744 0.0667646 0.039316 0 -1.96151 0 
7 -0.346037 0.633828 0.134898 -0.67847 0.859403 0.27147 0.0616553 0 -1.96151 0 
8 0.30366 -0.327276 0.883674 0.140716 0.676304 0.031163 0.0263092 -0.00118074 0.723928 -0.747461 
9 -0.640826 0.610043 -0.261114 -0.386017 0.822202 0.0256725 0.0586053 -0.655721 0.0501436 0.201354 
10 -0.107606 0.962887 -0.177561 -0.172459 0.727273 0.103039 0.0537516 0 -1.96151 0 
11 -0.408493 0.460741 0.609422 -0.499457 0.94267 0.108255 0.0730053 0 -1.96151 0 
12 0.181137 -0.0330917 0.0135804 -0.982807 0.921376 0.0145344 0.0650977 0.305691 0.44654 -0.177835 
13 0.538664 -0.0146375 0.637837 0.550264 0.524646 0.147403 0.0614046 0 -1.96151 0 
14 0.193743 0.191606 0.492096 0.826796 0.625763 0.0674488 0.0558523 0.239683 0.822324 0.248039 
15 0.569542 0.490621 0.411703 0.515183 0.581441 0.0943289 0.0574862 0 -1.96151 0 
16 -0.370889 0.309849 0.431571 0.761697 0.799294 0.0955566 0.0162085 0 -1.96151 0 
17 0.138049 -0.142092 0.469921 0.86019 0.559681 0.036995 0.0553917 -0.38185 -0.19865 -0.0822919 
18 -0.385713 0.209179 0.652475 0.617856 0.797817 0.0552529 0.0383578 -0.177249 -1.65017 -0.0360085 
19 0.749522 0.184191 -0.617346 -0.152231 0.653053 0.105216 0.102369 0 -1.96151 0 
20 -0.459423 0.823561 0.204821 -0.262158 0.547358 0.024448 0.0356869 0 -1.96151 0 
21 0.672734 -0.255642 0.404731 0.564153 0.885928 0.180174 0.0582331 0 -1.96151 0 
22 -0.337587 0.496641 0.552894 -0.57766 0.610195 0.0215008 0.0894407 -0.0784727 -0.325142 0.082305 
23 -0.194339 0.0914686 0.925554 0.311795 0.657194 0.0454684 0.0580836 0 -1.96151 0 
24 0.342698 -0.665357 -0.361762 -0.555866 0.54954 0.0325053 0.0224151 -0.138476 0.201363 -0.182549 
25 0.575878 -0.599964 -0.552827 0.0528274 0.780552 0.0292052 0.0943282 -0.141241 -0.0102511 -0.262819 
26 -0.184152 -0.753756 0.555352 0.299206 0.93647 0.0376054 0.115979 -0.347941 0.508253 -0.324552 
27 0.335615 -0.0792343 0.860608 0.37475 0.586809 0.0293812 0.0634659 0 -1.96151 0 
28 -0.580303 0.0636776 0.25924 -0.769408 0.784323 0.024716 0.0143479 -0.508079 -0.999279 0.466619 
29 0.856432 0.14266 -0.0868297 -0.4885 0.689225 0.0354749 0.067782 0 -1.96151 0 
30 -0.729266 0.39161 0.418822 -0.373363 0.542983 0.0204833 0.0998762 -0.373516 -0.42194 -0.172793 
31 -0.108257 -0.472406 0.693074 0.533631 0.597259 0.210083 0.0279176 0 -1.96151 0 
32 -0.737205 -0.159967 0.643197 -0.131289 0.518775 0.057805 0.0861433 0.594804 0.43307 -0.0948019 
33 0.491162 0.610385 -0.619366 0.050758 0.815027 0.0228563 0.0113243 0.210386 -0.507026 -0.165882 
34 0.885999 0.351064 0.200737 -0.226857 0.571339 0.156961 0.0205613 0 -1.96151 0 
35 0.0535037 -0.232563 0.961789 0.134217 0.804228 0.0500427 0.0667995 -0.660756 -0.644109 -0.0435174 
36 -0.140978 -0.228596 0.447226 0.853146 0.809836 0.11684 0.0419034 0 -1.96151 0 
37 -0.31999 0.131766 0.899276 0.267482 0.799347 0.133611 0.109105 0 -1.96151 0 
38 0.778868 0.184069 0.130341 -0.58523 0.592726 0.128144 0.0391593 0 -1.96151 0 
39 0.736375 0.0838453 -0.105045 0.663089 0.717061 0.0303139 0.0826166 0 -1.96151 0 
40 0.631484 0.398555 -0.410514 -0.523316 0.65582 0.168268 0.0296836 0 -1.96151 0 
41 -0.32831 -0.122005 0.758135 0.550053 0.892061 0.058482 0.0380002 0 -1.96151 0 
42 0.511838 0.34894 -0.783027 0.0559605 0.794177 0.100637 0.0614747 0 -1.96151 0 
43 0.421971 0.830104 0.308347 0.194395 0.512902 0.0235774 0.0525724 0.362436 0.00519126 0.0173036 
44 -0.312112 0.526714 0.208308 0.762736 0.584237 0.216926 0.0806083 0 -1.96151 0 
45 0.949035 -0.105462 -0.0116449 0.296775 0.854893 0.164577 0.0219066 0 -1.96151 0 
46 -0.0545716 0.566019 -0.373263 0.73302 0.861674 0.172517 0.0836268 0 -1.96151 0 