ITEM: TIMESTEP
0
ITEM: NUMBER OF ENTRIES
0
ITEM: BOX BOUNDS mm ff mm
-7.11219 2
0 1
-0.011213 0.141213
ITEM: ENTRIES c_bid c_quat[1] c_quat[2] c_quat[3] c_quat[4] c_pos[1] c_pos[2] c_pos[3] c_vel[1] c_vel[2] c_vel[3] 
ITEM: TIMESTEP
1000
ITEM: NUMBER OF ENTRIES
10
ITEM: BOX BOUNDS mm ff mm
-7.11219 2
0 1
-0.011213 0.141213
ITEM: ENTRIES c_bid c_quat[1] c_quat[2] c_quat[3] c_quat[4] c_pos[1] c_pos[2] c_pos[3] c_vel[1] c_vel[2] c_vel[3] 
1 0.18492 0.0722321 0.509286 -0.837386 0.777908 0.296459 0.0779192 0 -0.980509 0 
2 0.584394 0.425842 0.0866138 -0.685303 0.873306 0.183186 0.0317342 0 -0.980509 0 
3 -0.462434 0.199011 0.744267 -0.43888 0.742578 0.33608 0.0525234 0 -0.980509 0 
4 0.607674 0.0430183 0.233557 0.757847 0.760123 0.241046 0.0464813 0 -0.980509 0 
5 -0.452775 0.697981 -0.554801 -0.00367454 0.544595 0.172827 0.105373 0 -0.980509 0 
6 0.755019 -0.111401 0.22013 0.607518 0.942744 0.213866 0.039316 0 -0.980509 0 
7 -0.346037 0.633828 0.134898 -0.67847 0.859403 0.418571 0.0616553 0 -0.980509 0 
8 -0.362987 0.428599 0.802352 0.201929 0.675253 0.139681 0.0364359 0 -0.980509 0 
10 0.876101 0.458511 0.0779387 0.127043 0.702785 0.484877 0.0964024 0 -0.980509 0 
9 0.0458404 0.0188477 0.870404 0.489837 0.920928 0.521676 0.0782619 0 -0.980509 0 
ITEM: TIMESTEP
2000
ITEM: NUMBER OF ENTRIES
10
ITEM: BOX BOUNDS mm ff mm
-7.11219 2
0 1
-0.011213 0.141213
ITEM: ENTRIES c_bid c_quat[1] c_quat[2] c_quat[3] c_quat[4] c_pos[1] c_pos[2] c_pos[3] c_vel[1] c_vel[2] c_vel[3] 
1 0.18492 0.0722321 0.509286 -0.837386 0.777908 0.149358 0.0779192 0 -1.96151 0 
2 0.584394 0.425842 0.0866138 -0.685303 0.873306 0.0360851 0.0317342 0 -1.96151 0 
3 -0.462434 0.199011 0.744267 -0.43888 0.742578 0.188979 0.0525234 0 -1.96151 0 
4 0.607674 0.0430183 0.233557 0.757847 0.760123 0.0939455 0.0464813 0 -1.96151 0 
5 -0.452775 0.697981 -0.554801 -0.00367454 0.544595 0.025726 0.105373 0 -1.96151 0 
6 0.755019 -0.111401 0.22013 0.607518 0.942744 0.0667646 0.039316 0 -1.96151 0 
7 -0.346037 0.633828 0.134898 -0.67847 0.859403 0.27147 0.0616553 0 -1.96151 0 
8 -0.0626176 0.281336 0.83275 -0.472711 0.66813 0.0216478 0.0240414 -0.52801 0.154918 -0.918114 
10 0.876101 0.458511 0.0779387 0.127043 0.702785 0.337776 0.0964024 0 -1.96151 0 
9 0.0458404 0.0188477 0.870404 0.489837 0.920928 0.374575 0.0782619 0 -1.96151 0 
ITEM: TIMESTEP
3000
ITEM: NUMBER OF ENTRIES
10
ITEM: BOX BOUNDS mm ff mm
-7.11219 2
0 1
-0.011213 0.141213
ITEM: ENTRIES c_bid c_quat[1] c_quat[2] c_quat[3] c_quat[4] c_pos[1] c_pos[2] c_pos[3] c_vel[1] c_vel[2] c_vel[3] 
1 0.0647292 -0.295045 -0.522432 -0.797386 0.777022 0.083471 0.0338797 0.0350118 1.25963 -0.995796 
2 -0.644577 0.111975 0.754917 0.0456363 0.890534 0.0424425 0.00670268 0.0386373 -0.0795561 -0.308822 
3 0.563679 -0.645712 0.352149 0.375916 0.778315 0.0219978 0.0583275 1.50236 -0.237622 0.26555 
4 -0.144579 -0.171665 0.587418 -0.77754 0.766131 0.0693348 0.0671169 -0.0230841 0.638603 0.227938 
5 0.477267 0.145141 -0.168302 -0.850191 0.530836 0.0238647 0.0755308 -0.467941 -0.0156381 -0.116425 
6 -0.42881 -0.830565 0.34084 -0.100553 0.954753 0.0607874 0.0785947 0.156487 0.274984 0.505756 
7 -0.346037 0.633828 0.134898 -0.67847 0.859403 0.0262694 0.0616553 0 -2.94251 0 
8 0.109123 0.535988 0.772532 -0.322496 0.657734 0.0206311 0.0153496 0.043249 -0.118343 0.308117 
10 0.876101 0.458511 0.0779387 0.127043 0.702785 0.0925748 0.0964024 0 -2.94251 0 
9 0.0458404 0.0188477 0.870404 0.489837 0.920928 0.129374 0.0782619 0 -2.94251 0 
ITEM: TIMESTEP
4000
ITEM: NUMBER OF ENTRIES
10
ITEM: BOX BOUNDS mm ff mm
-7.11219 2
0 1
-0.011213 0.141213
ITEM: ENTRIES c_bid c_quat[1] c_quat[2] c_quat[3] c_quat[4] c_pos[1] c_pos[2] c_pos[3] c_vel[1] c_vel[2] c_vel[3] 
1 0.379751 0.0353894 0.0801938 0.920927 0.782889 0.0815007 0.107518 0.0657387 -0.751874 1.26642 
2 -0.745408 -0.592096 -0.297427 -0.0729873 0.883193 0.0213951 0.0102165 -0.257391 -0.296828 -0.120736 
3 -0.449001 0.374214 0.0867123 0.806749 0.741045 0.05962 0.0894375 0.00575836 0.513168 0.437152 
4 -0.951508 -0.024741 -0.0350432 -0.304618 0.763822 0.0841452 0.0899107 -0.0230841 -0.342397 0.227938 
5 0.200044 -0.490793 -0.515403 0.673397 0.515341 0.0185921 0.0534176 0.153637 -0.0960511 -0.27998 
6 0.152367 0.984373 -0.0607562 -0.0640565 0.96749 0.0481721 0.105635 0.00967658 -0.244928 -0.685413 
7 -0.631465 -0.597379 -0.415995 0.267091 0.814618 0.0914701 0.0831992 -0.462593 0.356489 0.224795 
8 -0.0416227 0.571831 0.819289 0.00648811 0.659272 0.0144523 0.0192461 0.0376417 0.0246283 0.0264076 
10 0.366965 0.823571 -0.358874 -0.241407 0.648067 0.0662722 0.0268334 -0.419418 -0.728859 1.00617 
9 -0.904709 0.402804 -0.0962415 -0.0999378 0.9416 0.116893 0.0400313 0.30232 0.836999 1.46449 
ITEM: TIMESTEP
5000
ITEM: NUMBER OF ENTRIES
10
ITEM: BOX BOUNDS mm ff mm
-7.11219 2
0 1
-0.011213 0.141213
ITEM: ENTRIES c_bid c_quat[1] c_quat[2] c_quat[3] c_quat[4] c_pos[1] c_pos[2] c_pos[3] c_vel[1] c_vel[2] c_vel[3] 
1 -0.0336414 -0.30721 -0.909777 -0.27712 0.780545 0.0350374 0.110238 -0.0297115 0.0980565 -0.427513 
2 0.557751 -0.177239 0.808603 -0.0605174 0.874099 0.0159282 0.0160735 0.031693 -0.0636242 0.130723 
3 0.359522 0.658095 -0.0130975 -0.661425 0.744557 0.0615058 0.120366 0.0742597 -0.413194 -0.30599 
4 -0.565541 0.132172 0.0011267 0.814059 0.759516 0.0200923 0.114211 -0.189549 0.547189 0.511013 
5 0.194947 0.690713 -0.117236 -0.686416 0.518834 0.0149165 0.0260161 -0.000946767 0.00543099 -0.252377 
6 0.634732 0.768054 -0.0725368 -0.0441298 0.962049 0.0229483 0.0664219 -0.0971957 -0.0190792 0.0636695 
7 0.487783 0.639369 0.368183 0.466601 0.768358 0.078069 0.105679 -0.462593 -0.624511 0.224795 
8 -0.0018683 0.586634 0.809849 -0.00132569 0.660509 0.0130871 0.0194946 0.0198148 -0.00110121 -0.000127904 
10 -0.373453 0.509747 0.330363 0.701107 0.641175 0.0319732 0.107173 -0.343576 0.262922 0.471904 
9 0.372617 0.0852325 0.309769 -0.870594 0.963095 0.152317 0.109592 0.110169 -0.120783 -0.241494 
ITEM: TIMESTEP
6000
ITEM: NUMBER OF ENTRIES
10
ITEM: BOX BOUNDS mm ff mm
-7.11219 2
0 1
-0.011213 0.141213
ITEM: ENTRIES c_bid c_quat[1] c_quat[2] c_quat[3] c_quat[4] c_pos[1] c_pos[2] c_pos[3] c_vel[1] c_vel[2] c_vel[3] 
1 0.655332 0.0258256 -0.377515 0.653725 0.775845 0.0205947 0.0797899 -0.0952017 0.144262 0.145094 
2 -0.239981 0.774433 -0.453668 0.369929 0.878106 0.0137316 0.0282484 0.00845309 -0.0909912 0.0147452 
3 0.178385 0.30249 0.7629 -0.542828 0.759845 0.025964 0.102691 0.563951 0.159784 -0.0873345 
4 0.6012 -0.644716 -0.140453 -0.450748 0.73627 0.0236609 0.120111 -0.156955 0.169342 0.0124114 
5 0.08227 -0.747916 -0.0691938 0.655031 0.517422 0.0137216 0.0072617 0.0272915 -0.0149487 -0.178014 
6 -0.0614656 0.890934 0.429098 0.135405 0.955031 0.0163892 0.0678247 -0.0116427 -0.0454175 0.00871304 
7 0.230853 -0.61028 -0.0397399 -0.75676 0.758609 0.0207774 0.11526 0.368226 0.10403 0.0977592 
8 -0.00189581 0.575519 0.817785 -0.00129429 0.660426 0.0130691 0.0194952 0.00978688 -0.0034972 -4.94741e-05 
10 -0.65382 -0.193592 -0.637619 -0.358445 0.616987 0.0289907 0.102136 -0.200156 -0.441043 -0.259175 
9 -0.0652621 -0.184323 -0.683232 0.703534 0.974112 0.0911883 0.0854424 0.110169 -1.10178 -0.241494 
ITEM: TIMESTEP
7000
ITEM: NUMBER OF ENTRIES
10
ITEM: BOX BOUNDS mm ff mm
-7.11219 2
0 1
-0.011213 0.141213
ITEM: ENTRIES c_bid c_quat[1] c_quat[2] c_quat[3] c_quat[4] c_pos[1] c_pos[2] c_pos[3] c_vel[1] c_vel[2] c_vel[3] 
1 -0.738942 -0.107954 0.223826 0.626269 0.769178 0.0147399 0.0857156 -0.00713783 -0.0142544 -0.00127403 
2 -0.177614 0.777157 -0.548809 0.251573 0.879302 0.0130629 0.0286784 0.00179559 -0.000541966 0.00130017 
3 0.126249 -0.0944163 0.839177 0.520509 0.802592 0.0229695 0.0912294 -0.15754 0.0914788 -0.0638071 
4 -0.278425 0.813621 -0.393695 -0.324815 0.727163 0.0208916 0.118605 -0.0418554 -0.29387 -0.0363099 
5 -0.266648 -0.663725 0.275259 0.642339 0.519384 0.0133761 0.006658 -0.00403312 -0.000619303 0.000463039 
6 0.0174517 0.974724 0.219513 0.037727 0.954514 0.0134904 0.0673695 0.0117697 -0.0256572 -0.00915825 
7 0.272726 0.666503 0.312011 0.619712 0.776924 0.01342 0.121065 -0.0160939 -0.0860825 -0.00413703 
8 -0.00189221 0.577722 0.81623 -0.00130113 0.660442 0.0130628 0.0194951 0.000163687 -1.48038e-06 -8.28439e-07 
10 -0.43454 -0.326923 0.607152 -0.579364 0.601647 0.0224609 0.103367 -0.125594 -0.219268 0.100161 
9 0.128537 0.858183 0.446016 0.219251 0.977323 0.0400648 0.0625176 -0.424085 0.46468 -0.208794 
ITEM: TIMESTEP
8000
ITEM: NUMBER OF ENTRIES
10
ITEM: BOX BOUNDS mm ff mm
-7.11219 2
0 1
-0.011213 0.141213
ITEM: ENTRIES c_bid c_quat[1] c_quat[2] c_quat[3] c_quat[4] c_pos[1] c_pos[2] c_pos[3] c_vel[1] c_vel[2] c_vel[3] 
1 -0.87189 -0.113632 0.263198 0.397017 0.767068 0.0132212 0.0847503 0.034203 -0.0141198 0.036809 
2 -0.177902 0.776528 -0.549699 0.251369 0.879308 0.0130603 0.0286828 1.7878e-06 1.45451e-10 1.29443e-06 
3 -0.789797 0.0624072 -0.0376029 0.609026 0.785515 0.0198991 0.0928906 -0.0492083 -0.0971066 -0.00977741 
4 0.467279 0.439016 -0.717562 -0.272064 0.719934 0.0156263 0.110515 -0.00787635 -0.191424 0.0289605 
5 -0.468677 -0.530837 0.484044 0.514059 0.51945 0.0132853 0.00438273 0.000410995 0.00229669 -0.0124554 
6 0.0239106 0.905986 0.41953 0.0511142 0.954584 0.0130687 0.0677425 -0.0195923 0.0200169 -0.00220844 
7 0.504297 0.426647 0.680628 0.316864 0.77663 0.0131907 0.120345 -0.00815429 -0.00692946 -0.0411522 
8 -0.00189212 0.577768 0.816198 -0.00130126 0.660443 0.0130628 0.0194951 4.48157e-08 -2.93548e-12 -2.32276e-10 
10 -0.331179 -0.751158 0.560311 0.110155 0.598462 0.0179606 0.118819 0.0417517 -0.201323 0.234293 
9 0.540169 0.0718174 0.689012 -0.47783 0.934915 0.0374828 0.0416382 -0.424085 -0.51632 -0.208794 
ITEM: TIMESTEP
9000
ITEM: NUMBER OF ENTRIES
10
ITEM: BOX BOUNDS mm ff mm
-7.11219 2
0 1
-0.011213 0.141213
ITEM: ENTRIES c_bid c_quat[1] c_quat[2] c_quat[3] c_quat[4] c_pos[1] c_pos[2] c_pos[3] c_vel[1] c_vel[2] c_vel[3] 
1 -0.873928 -0.116712 0.259322 0.394183 0.767179 0.0130785 0.0847679 0.0322194 -0.0134148 0.0209725 
2 -0.177902 0.776528 -0.549698 0.251369 0.879308 0.0130603 0.0286828 -6.30885e-11 2.09668e-16 -4.56879e-11 
3 -0.979427 0.00453799 0.05725 -0.193454 0.782022 0.0152938 0.091879 0.00149706 -0.00588852 0.0655155 
4 0.307275 0.69067 -0.511328 -0.408779 0.719089 0.0133168 0.113037 0.0208058 -0.0397089 -0.0538208 
5 -0.390174 -0.594781 0.402872 0.575929 0.519419 0.0131068 0.00529707 0.00132272 -0.0133264 -0.0404528 
6 0.0236754 0.907904 0.415363 0.0512191 0.954623 0.0130688 0.0677474 0.0102679 0.00608864 0.00116504 
7 0.454914 0.518823 0.612845 0.385095 0.776891 0.0132343 0.121215 -0.00289852 -0.00234443 -0.0095643 
8 -0.00189212 0.577768 0.816198 -0.00130126 0.660443 0.0130628 0.0194951 5.06225e-12 1.52326e-15 -2.65992e-14 
10 -0.0773996 -0.895455 0.239377 0.367244 0.597996 0.0138664 0.116637 -0.0236288 -0.00304636 0.0207786 
9 0.388799 0.187058 0.186271 0.882694 0.905209 0.0249191 0.0189197 0.0158881 -0.0453842 -0.138212 
ITEM: TIMESTEP
10000
ITEM: NUMBER OF ENTRIES
10
ITEM: BOX BOUNDS mm ff mm
-7.11219 2
0 1
-0.011213 0.141213
ITEM: ENTRIES c_bid c_quat[1] c_quat[2] c_quat[3] c_quat[4] c_pos[1] c_pos[2] c_pos[3] c_vel[1] c_vel[2] c_vel[3] 
1 -0.873924 -0.116716 0.259322 0.394191 0.767171 0.0130844 0.0847622 -0.0148548 0.00454699 -0.00967888 
2 -0.177902 0.776528 -0.549698 0.251369 0.879308 0.0130603 0.0286828 -1.68225e-14 1.22885e-15 -4.70586e-15 
3 -0.990271 0.0120639 0.0964355 -0.0995925 0.782488 0.0132011 0.0923233 -0.0456102 0.00801606 -0.0168383 
4 0.265613 0.734455 -0.442786 -0.440416 0.718646 0.01321 0.113641 0.00820913 -0.00440915 -0.0153567 
5 -0.423552 -0.569867 0.437299 0.551928 0.519429 0.0131446 0.00497134 0.000122515 0.00125631 -0.00406857 
6 0.0237937 0.906982 0.417371 0.0511792 0.954608 0.0130621 0.0677454 0.00226919 -0.000974061 0.000256125 
7 0.480918 0.474286 0.647935 0.352065 0.776751 0.013099 0.120754 -0.0087297 -0.0101092 -0.0288026 
8 -0.00189212 0.577768 0.816198 -0.00130126 0.660443 0.0130628 0.0194951 -1.44639e-14 9.7062e-15 1.39789e-15 
10 0.101165 -0.893214 -0.253739 0.357142 0.595092 0.0133221 0.119087 -0.0271688 -0.00530829 0.0258623 
9 0.377642 0.450389 -0.732581 -0.343309 0.908622 0.0155072 0.018372 -0.169823 0.155951 0.225635 
ITEM: TIMESTEP
11000
ITEM: NUMBER OF ENTRIES
10
ITEM: BOX BOUNDS mm ff mm
-7.1096 2
0 1
-0.011213 0.141213
ITEM: ENTRIES c_bid c_quat[1] c_quat[2] c_quat[3] c_quat[4] c_pos[1] c_pos[2] c_pos[3] c_vel[1] c_vel[2] c_vel[3] 
1 -0.864961 -0.122503 0.256867 0.413345 0.769926 0.013095 0.0848297 0.0390807 0.00138205 0.00816654 
2 -0.177876 0.776509 -0.549769 0.251294 0.881944 0.0130603 0.0286859 0.0266962 -6.86065e-05 0.000120408 
3 -0.995697 6.61532e-05 0.0926467 0.00216961 0.785738 0.0132464 0.0924214 0.029824 0.000748259 0.000617061 
4 0.307734 0.687126 -0.513321 -0.411896 0.721563 0.0131178 0.113089 0.0328042 0.00313821 -0.0118488 
5 -0.409305 -0.580899 0.42267 0.562473 0.522037 0.0130902 0.00512279 0.0265055 -0.000180187 0.000670449 
6 0.023791 0.907008 0.417313 0.0511821 0.957253 0.013062 0.0677449 0.0246546 0.000295757 -0.000212145 
7 0.481983 0.471814 0.650172 0.349801 0.779361 0.0130909 0.120756 0.0305778 0.00777326 0.0134862 
8 -0.00189419 0.577525 0.81637 -0.00130165 0.663083 0.0130634 0.0194952 0.0240971 0.00210155 1.30353e-05 
10 0.15739 -0.841393 -0.387211 0.342569 0.59698 0.013062 0.119075 0.0265007 1.39403e-08 2.86305e-05 
9 -0.0429008 0.984682 -0.164655 0.0380601 0.907593 0.0140169 0.0232333 0.0752342 0.0551565 0.000213775 
ITEM: TIMESTEP
12000
ITEM: NUMBER OF ENTRIES
10
ITEM: BOX BOUNDS mm ff mm
-7.10778 2
0 1
-0.011213 0.141213
ITEM: ENTRIES c_bid c_quat[1] c_quat[2] c_quat[3] c_quat[4] c_pos[1] c_pos[2] c_pos[3] c_vel[1] c_vel[2] c_vel[3] 
1 -0.870206 -0.119186 0.258428 0.402183 0.772515 0.0130662 0.0847876 0.0332349 0.00389245 0.00436496 
2 -0.177858 0.776548 -0.549713 0.251307 0.884597 0.0130603 0.0286856 0.02653 -2.62332e-12 -2.31359e-08 
3 -0.994849 0.00408885 0.0925612 -0.041131 0.788095 0.0131712 0.0923653 0.0180998 -0.00244029 -0.00158089 
4 0.299989 0.696603 -0.500389 -0.417566 0.724162 0.0130763 0.113192 0.0214673 -0.00375647 0.00946166 
5 -0.402441 -0.585998 0.415579 0.567399 0.524688 0.0130621 0.00519766 0.026622 0.00106764 -0.00274086 
6 0.0237896 0.90702 0.417287 0.0511827 0.959906 0.013062 0.0677449 0.0265299 2.93899e-11 -9.13344e-09 
7 0.484667 0.466778 0.653796 0.346072 0.782001 0.0130721 0.120713 0.02704 0.00109153 0.00168308 
8 -0.00189372 0.577768 0.816198 -0.0013024 0.665738 0.0130628 0.0194952 0.0265314 -8.97552e-11 -7.1322e-09 
10 0.157386 -0.841398 -0.387201 0.342571 0.599634 0.013062 0.119075 0.02653 -1.89849e-12 -3.67337e-09 
9 0.000732681 0.997892 0.00719077 0.0644992 0.909668 0.0132529 0.022944 0.021573 0.00108581 -0.000645823 
ITEM: TIMESTEP
13000
ITEM: NUMBER OF ENTRIES
10
ITEM: BOX BOUNDS mm ff mm
-7.10589 2
0 1
-0.011213 0.141213
ITEM: ENTRIES c_bid c_quat[1] c_quat[2] c_quat[3] c_quat[4] c_pos[1] c_pos[2] c_pos[3] c_vel[1] c_vel[2] c_vel[3] 
1 -0.870884 -0.118749 0.258631 0.400711 0.775158 0.0130612 0.084781 0.0265276 7.86081e-10 -1.55539e-06 
2 -0.177858 0.776548 -0.549713 0.251307 0.88725 0.0130603 0.0286856 0.02653 -6.85834e-15 -3.58684e-12 
3 -0.991091 0.00915353 0.0922234 -0.0956586 0.790406 0.0130712 0.0923005 0.0493771 -0.00823466 0.0042849 
4 0.296958 0.700211 -0.495327 -0.419727 0.726792 0.013061 0.113234 0.0254515 0.00173184 0.002017 
5 -0.401932 -0.586371 0.415052 0.56776 0.527341 0.0130603 0.00520363 0.0265298 -5.06302e-10 7.58918e-06 
6 0.0237896 0.90702 0.417287 0.0511827 0.962559 0.013062 0.0677449 0.02653 -1.16e-14 -1.19778e-12 
7 0.486061 0.46413 0.655679 0.344111 0.784646 0.0130628 0.120689 0.0265089 6.082e-09 -6.9171e-05 
8 -0.00189372 0.577768 0.816198 -0.0013024 0.668391 0.0130628 0.0194952 0.02653 -3.5682e-15 -3.23116e-13 
10 0.157386 -0.841398 -0.387201 0.342571 0.602287 0.013062 0.119075 0.02653 -6.62039e-15 -6.71681e-13 
9 -0.00207728 0.997263 -0.036212 0.0644271 0.912625 0.0131794 0.0229848 0.0267825 -6.91676e-05 3.29868e-05 
ITEM: TIMESTEP
14000
ITEM: NUMBER OF ENTRIES
10
ITEM: BOX BOUNDS mm ff mm
-7.10326 2
0 1
-0.011213 0.141213
ITEM: ENTRIES c_bid c_quat[1] c_quat[2] c_quat[3] c_quat[4] c_pos[1] c_pos[2] c_pos[3] c_vel[1] c_vel[2] c_vel[3] 
1 -0.870872 -0.118757 0.258627 0.400739 0.777811 0.0130612 0.0847811 0.02653 -7.58652e-12 1.14893e-08 
2 -0.177858 0.776548 -0.549713 0.251307 0.889903 0.0130603 0.0286856 0.02653 6.55014e-16 -1.05547e-14 
3 -0.991805 0.00843712 0.0922838 -0.0879487 0.793104 0.0130714 0.0923087 0.0267077 -0.000316695 3.4691e-05 
4 0.297085 0.700062 -0.495538 -0.419638 0.729446 0.0130603 0.113232 0.0265302 2.13786e-11 -2.83527e-07 
5 -0.401932 -0.586371 0.415052 0.56776 0.529994 0.0130603 0.00520363 0.02653 -2.35505e-14 3.26272e-10 
6 0.0237896 0.90702 0.417287 0.0511827 0.965212 0.013062 0.0677449 0.02653 -6.64181e-15 -5.25224e-16 
7 0.486065 0.464122 0.655685 0.344105 0.787299 0.0130628 0.120688 0.02653 8.10365e-13 -1.18781e-08 
8 -0.00189372 0.577768 0.816198 -0.0013024 0.671044 0.0130628 0.0194952 0.02653 2.33137e-15 5.37162e-16 
10 0.157386 -0.841398 -0.387201 0.342571 0.60494 0.013062 0.119075 0.02653 -2.79572e-15 3.3248e-15 
9 -0.00717877 0.991275 -0.115001 0.0640137 0.915765 0.0131126 0.0230484 0.0190385 -0.00245987 -0.00097296 
ITEM: TIMESTEP
15000
ITEM: NUMBER OF ENTRIES
10
ITEM: BOX BOUNDS mm ff mm
-7.09937 2
0 1
-0.011213 0.141213
ITEM: ENTRIES c_bid c_quat[1] c_quat[2] c_quat[3] c_quat[4] c_pos[1] c_pos[2] c_pos[3] c_vel[1] c_vel[2] c_vel[3] 
1 -0.870872 -0.118757 0.258627 0.400739 0.780464 0.0130612 0.0847811 0.02653 -1.20622e-14 1.48472e-12 
2 -0.177858 0.776548 -0.549713 0.251307 0.892556 0.0130603 0.0286856 0.02653 -6.41877e-15 1.36918e-15 
3 -0.991451 0.00879977 0.0922517 -0.091854 0.795732 0.0130624 0.092304 0.0266285 -2.78782e-08 1.84777e-05 
4 0.297085 0.700062 -0.495538 -0.419638 0.732099 0.0130603 0.113232 0.02653 1.56013e-14 -6.30787e-11 
5 -0.401932 -0.586371 0.415052 0.56776 0.532647 0.0130603 0.00520363 0.02653 7.24385e-15 1.21932e-15 
6 0.0237896 0.90702 0.417287 0.0511827 0.967865 0.013062 0.0677449 0.02653 -5.60814e-15 2.17526e-16 
7 0.486065 0.464122 0.655685 0.344105 0.789952 0.0130628 0.120688 0.02653 1.57927e-15 -1.1877e-12 
8 -0.00189372 0.577768 0.816198 -0.0013024 0.673697 0.0130628 0.0194952 0.02653 -7.54604e-15 1.20871e-16 
10 0.157386 -0.841398 -0.387201 0.342571 0.607593 0.013062 0.119075 0.02653 -7.00793e-15 -2.94065e-15 
9 -0.00603844 0.993159 -0.0973914 0.064141 0.918311 0.013073 0.0230346 0.0268613 0.000193872 4.04413e-05 
