ITEM: TIMESTEP
0
ITEM: NUMBER OF ENTRIES
0
ITEM: BOX BOUNDS mm ff mm
-7.11219 2
0 1
-0.011213 0.141213
ITEM: ENTRIES c_bid c_quat[1] c_quat[2] c_quat[3] c_quat[4] c_pos[1] c_pos[2] c_pos[3] c_vel[1] c_vel[2] c_vel[3] 
ITEM: TIMESTEP
1000
ITEM: NUMBER OF ENTRIES
10
ITEM: BOX BOUNDS mm ff mm
-7.11219 2
0 1
-0.011213 0.141213
ITEM: ENTRIES c_bid c_quat[1] c_quat[2] c_quat[3] c_quat[4] c_pos[1] c_pos[2] c_pos[3] c_vel[1] c_vel[2] c_vel[3] 
1 0.18492 0.0722321 0.509286 -0.837386 0.777908 0.296459 0.0779192 0 -0.980509 0 
2 0.584394 0.425842 0.0866138 -0.685303 0.873306 0.183186 0.0317342 0 -0.980509 0 
3 -0.462434 0.199011 0.744267 -0.43888 0.742578 0.33608 0.0525234 0 -0.980509 0 
4 0.607674 0.0430183 0.233557 0.757847 0.760123 0.241046 0.0464813 0 -0.980509 0 
5 -0.452775 0.697981 -0.554801 -0.00367454 0.544595 0.172827 0.105373 0 -0.980509 0 
6 0.755019 -0.111401 0.22013 0.607518 0.942744 0.213866 0.039316 0 -0.980509 0 
7 -0.346037 0.633828 0.134898 -0.67847 0.859403 0.418571 0.0616553 0 -0.980509 0 
8 -0.362987 0.428599 0.802352 0.201929 0.675253 0.139681 0.0364359 0 -0.980509 0 
10 0.876101 0.458511 0.0779387 0.127043 0.702785 0.484877 0.0964024 0 -0.980509 0 
9 0.0458404 0.0188477 0.870404 0.489837 0.920928 0.521676 0.0782619 0 -0.980509 0 
ITEM: TIMESTEP
2000
ITEM: NUMBER OF ENTRIES
10
ITEM: BOX BOUNDS mm ff mm
-7.11219 2
0 1
-0.011213 0.141213
ITEM: ENTRIES c_bid c_quat[1] c_quat[2] c_quat[3] c_quat[4] c_pos[1] c_pos[2] c_pos[3] c_vel[1] c_vel[2] c_vel[3] 
1 0.18492 0.0722321 0.509286 -0.837386 0.777908 0.149358 0.0779192 0 -1.96151 0 
2 0.584394 0.425842 0.0866138 -0.685303 0.873306 0.0360851 0.0317342 0 -1.96151 0 
3 -0.462434 0.199011 0.744267 -0.43888 0.742578 0.188979 0.0525234 0 -1.96151 0 
4 0.607674 0.0430183 0.233557 0.757847 0.760123 0.0939455 0.0464813 0 -1.96151 0 
5 -0.452775 0.697981 -0.554801 -0.00367454 0.544595 0.025726 0.105373 0 -1.96151 0 
6 0.755019 -0.111401 0.22013 0.607518 0.942744 0.0667646 0.039316 0 -1.96151 0 
7 -0.346037 0.633828 0.134898 -0.67847 0.859403 0.27147 0.0616553 0 -1.96151 0 
8 -0.0626176 0.281336 0.83275 -0.472711 0.66813 0.0216478 0.0240414 -0.52801 0.154918 -0.918114 
10 0.876101 0.458511 0.0779387 0.127043 0.702785 0.337776 0.0964024 0 -1.96151 0 
9 0.0458404 0.0188477 0.870404 0.489837 0.920928 0.374575 0.0782619 0 -1.96151 0 
ITEM: TIMESTEP
3000
ITEM: NUMBER OF ENTRIES
15
ITEM: BOX BOUNDS mm ff mm
-7.11219 2
0 1
-0.011213 0.141213
ITEM: ENTRIES c_bid c_quat[1] c_quat[2] c_quat[3] c_quat[4] c_pos[1] c_pos[2] c_pos[3] c_vel[1] c_vel[2] c_vel[3] 
1 0.0647292 -0.295045 -0.522432 -0.797386 0.777022 0.083471 0.0338797 0.0350118 1.25963 -0.995796 
2 -0.644577 0.111975 0.754917 0.0456363 0.890534 0.0424425 0.00670268 0.0386373 -0.0795561 -0.308822 
3 0.563679 -0.645712 0.352149 0.375916 0.778315 0.0219978 0.0583275 1.50236 -0.237622 0.26555 
4 -0.144579 -0.171665 0.587418 -0.77754 0.766131 0.0693348 0.0671169 -0.0230841 0.638603 0.227938 
5 0.477267 0.145141 -0.168302 -0.850191 0.530836 0.0238647 0.0755308 -0.467941 -0.0156381 -0.116425 
6 -0.42881 -0.830565 0.34084 -0.100553 0.954753 0.0607874 0.0785947 0.156487 0.274984 0.505756 
7 -0.346037 0.633828 0.134898 -0.67847 0.859403 0.0262694 0.0616553 0 -2.94251 0 
8 0.109123 0.535988 0.772532 -0.322496 0.657734 0.0206311 0.0153496 0.043249 -0.118343 0.308117 
10 0.876101 0.458511 0.0779387 0.127043 0.702785 0.0925748 0.0964024 0 -2.94251 0 
9 0.0458404 0.0188477 0.870404 0.489837 0.920928 0.129374 0.0782619 0 -2.94251 0 
11 0.0682309 0.588832 -0.199907 -0.780166 0.654696 0.339957 0.0450465 0 -0.980509 0 
12 -0.107606 0.962887 -0.177561 -0.172459 0.911978 0.398427 0.0202576 0 -0.980509 0 
13 -0.408493 0.460741 0.609422 -0.499457 0.794043 0.152622 0.108157 0 -0.980509 0 
14 0.66951 -0.166939 -0.520259 -0.503208 0.921146 0.139084 0.0273183 0 -0.980509 0 
15 0.00878121 -0.456168 0.07301 0.88685 0.773528 0.493163 0.0611946 0 -0.980509 0 
ITEM: TIMESTEP
4000
ITEM: NUMBER OF ENTRIES
19
ITEM: BOX BOUNDS mm ff mm
-7.11219 2
0 1
-0.011213 0.141213
ITEM: ENTRIES c_bid c_quat[1] c_quat[2] c_quat[3] c_quat[4] c_pos[1] c_pos[2] c_pos[3] c_vel[1] c_vel[2] c_vel[3] 
1 0.379751 0.0353894 0.0801938 0.920927 0.782889 0.0815007 0.107518 0.0657387 -0.751874 1.26642 
2 -0.745408 -0.592096 -0.297427 -0.0729873 0.883193 0.0213951 0.0102165 -0.257391 -0.296828 -0.120736 
3 -0.449001 0.374214 0.0867123 0.806749 0.741045 0.05962 0.0894375 0.00575836 0.513168 0.437152 
4 -0.951508 -0.024741 -0.0350432 -0.304618 0.763822 0.0841452 0.0899107 -0.0230841 -0.342397 0.227938 
5 0.200044 -0.490793 -0.515403 0.673397 0.515341 0.0185921 0.0534176 0.153637 -0.0960511 -0.27998 
6 0.152367 0.984373 -0.0607562 -0.0640565 0.96749 0.0481721 0.105635 0.00967658 -0.244928 -0.685413 
7 -0.631465 -0.597379 -0.415995 0.267091 0.814618 0.0914701 0.0831992 -0.462593 0.356489 0.224795 
8 -0.0416227 0.571831 0.819289 0.00648811 0.659272 0.0144523 0.0192461 0.0376417 0.0246283 0.0264076 
10 0.366965 0.823571 -0.358874 -0.241407 0.648067 0.0662722 0.0268334 -0.419418 -0.728859 1.00617 
9 -0.95132 0.29146 0.0301024 -0.095576 0.94476 0.0959856 0.0152894 0.0854449 0.108964 0.805746 
11 0.0682309 0.588832 -0.199907 -0.780166 0.654696 0.192856 0.0450465 0 -1.96151 0 
12 -0.107606 0.962887 -0.177561 -0.172459 0.911978 0.251326 0.0202576 0 -1.96151 0 
13 -0.508267 0.353182 0.689233 -0.376678 0.795672 0.016316 0.109419 0.291684 0.850591 0.315044 
14 -0.0240423 -0.332852 0.0705869 -0.940026 0.915867 0.014548 0.0223287 -0.116131 -0.507535 0.802336 
15 0.00878121 -0.456168 0.07301 0.88685 0.773528 0.346062 0.0611946 0 -1.96151 0 
16 0.538664 -0.0146375 0.637837 0.550264 0.772099 0.268877 0.0839702 0 -0.980509 0 
17 0.0333752 0.126297 0.61501 0.777623 0.87049 0.164971 0.0972787 0 -0.980509 0 
18 0.569542 0.490621 0.411703 0.515183 0.768432 0.134276 0.0258024 0 -0.980509 0 
19 0.461972 0.524822 0.252639 0.668818 0.597602 0.466389 0.073721 0 -0.980509 0 
ITEM: TIMESTEP
5000
ITEM: NUMBER OF ENTRIES
22
ITEM: BOX BOUNDS mm ff mm
-7.11219 2
0 1
-0.011213 0.141213
ITEM: ENTRIES c_bid c_quat[1] c_quat[2] c_quat[3] c_quat[4] c_pos[1] c_pos[2] c_pos[3] c_vel[1] c_vel[2] c_vel[3] 
1 -0.0336414 -0.30721 -0.909777 -0.27712 0.780545 0.0350374 0.110238 -0.0297115 0.0980565 -0.427513 
2 0.557751 -0.177239 0.808603 -0.0605174 0.874099 0.0159282 0.0160735 0.031693 -0.0636242 0.130723 
3 0.359522 0.658095 -0.0130975 -0.661425 0.744557 0.0615058 0.120366 0.0742597 -0.413194 -0.30599 
4 -0.565541 0.132172 0.0011267 0.814059 0.759516 0.0200923 0.114211 -0.189549 0.547189 0.511013 
5 0.194947 0.690713 -0.117236 -0.686416 0.518834 0.0149165 0.0260161 -0.000946767 0.00543099 -0.252377 
6 0.634732 0.768054 -0.0725368 -0.0441298 0.962049 0.0229483 0.0664219 -0.0971957 -0.0190792 0.0636695 
7 0.487783 0.639369 0.368183 0.466601 0.768358 0.078069 0.105679 -0.462593 -0.624511 0.224795 
8 -0.0018683 0.586634 0.809849 -0.00132569 0.660509 0.0130871 0.0194946 0.0198148 -0.00110121 -0.000127904 
10 -0.373453 0.509747 0.330363 0.701107 0.641175 0.0319732 0.107173 -0.343576 0.262922 0.471904 
9 -0.205235 -0.861372 0.389923 -0.25274 0.953304 0.057832 0.0958641 0.0854449 -0.872036 0.805746 
11 0.059571 -0.320025 -0.581117 0.745881 0.668186 0.0903436 0.0454734 0.425122 1.51779 0.012433 
12 -0.0152783 0.983099 -0.0872129 -0.160237 0.911116 0.015769 0.0185923 -0.300868 1.29133 -0.470467 
13 -0.786692 0.244846 0.565226 -0.0410621 0.827136 0.045502 0.111041 0.343126 -0.282363 -0.351468 
14 0.481951 0.146764 -0.829418 -0.241348 0.911283 0.04102 0.0740698 -0.0462871 -0.222498 0.516618 
15 0.00878121 -0.456168 0.07301 0.88685 0.773528 0.100861 0.0611946 0 -2.94251 0 
16 0.538664 -0.0146375 0.637837 0.550264 0.772099 0.121776 0.0839702 0 -1.96151 0 
17 0.0379081 0.140115 0.603191 0.784278 0.870992 0.023642 0.0977521 0.330052 1.58394 0.312023 
18 0.806595 0.400506 0.41356 -0.134046 0.764233 0.0245282 0.021751 -0.289397 0.788186 -0.297923 
19 0.461972 0.524822 0.252639 0.668818 0.597602 0.319288 0.073721 0 -1.96151 0 
20 -0.370889 0.309849 0.431571 0.761697 0.592158 0.205448 0.0718758 0 -0.980509 0 
21 0.193569 0.451118 0.871216 0.00254914 0.571978 0.292603 0.074857 0 -0.980509 0 
22 -0.317808 0.886748 -0.326521 0.0778391 0.64207 0.472555 0.108809 0 -0.980509 0 
ITEM: TIMESTEP
6000
ITEM: NUMBER OF ENTRIES
26
ITEM: BOX BOUNDS mm ff mm
-7.11219 2
0 1
-0.011213 0.141213
ITEM: ENTRIES c_bid c_quat[1] c_quat[2] c_quat[3] c_quat[4] c_pos[1] c_pos[2] c_pos[3] c_vel[1] c_vel[2] c_vel[3] 
1 0.000187326 0.895968 -0.140658 0.421256 0.74562 0.0392029 0.0701733 -0.657401 0.207954 -0.416211 
2 -0.239981 0.774433 -0.453668 0.369929 0.878106 0.0137316 0.0282484 0.00845309 -0.0909912 0.0147452 
3 0.178385 0.30249 0.7629 -0.542828 0.759845 0.025964 0.102691 0.563951 0.159784 -0.0873345 
4 0.6012 -0.644716 -0.140453 -0.450748 0.73627 0.0236609 0.120111 -0.156955 0.169342 0.0124114 
5 0.08227 -0.747916 -0.0691938 0.655031 0.517422 0.0137216 0.0072617 0.0272915 -0.0149487 -0.178014 
6 -0.0614656 0.890934 0.429098 0.135405 0.955031 0.0163892 0.0678247 -0.0116427 -0.0454175 0.00871304 
7 0.230853 -0.61028 -0.0397399 -0.75676 0.758609 0.0207774 0.11526 0.368226 0.10403 0.0977592 
8 -0.00189581 0.575519 0.817785 -0.00129429 0.660426 0.0130691 0.0194952 0.00978688 -0.0034972 -4.94741e-05 
10 -0.65382 -0.193592 -0.637619 -0.358445 0.616987 0.0289907 0.102136 -0.200156 -0.441043 -0.259175 
9 0.0536693 0.18902 -0.973839 0.114142 0.962273 0.0317705 0.0891971 0.146922 0.0918865 -0.487873 
11 -0.340057 -0.141967 -0.721936 -0.585675 0.710699 0.193073 0.0467167 0.425122 0.536795 0.012433 
12 0.564626 0.650353 0.173721 0.477556 0.888839 0.0314948 0.0151363 -0.320235 -0.449728 0.252973 
13 -0.077546 -0.458179 0.457828 -0.757926 0.85247 0.0234713 0.0836743 0.154893 0.00367325 -0.185991 
14 -0.154761 -0.351325 -0.173744 0.906881 0.915577 0.0182415 0.102834 0.0631378 0.0517135 0.0709696 
15 0.275262 -0.502095 0.111755 0.812184 0.732805 0.108175 0.067521 -0.567563 0.990206 0.086287 
16 0.0443246 -0.157608 0.519725 0.838499 0.756227 0.0398803 0.0451524 -0.340277 0.33877 -0.593332 
17 -0.16401 0.257174 -0.626548 0.717216 0.89241 0.130229 0.114656 -0.131374 0.497689 -0.256328 
18 0.0370401 0.266793 0.603366 0.750599 0.739793 0.0590198 0.0158351 -0.174175 -0.0642323 0.33042 
19 0.461972 0.524822 0.252639 0.668818 0.597602 0.0740871 0.073721 0 -2.94251 0 
20 -0.370889 0.309849 0.431571 0.761697 0.592158 0.0583473 0.0718758 0 -1.96151 0 
21 0.193569 0.451118 0.871216 0.00254914 0.571978 0.145502 0.074857 0 -1.96151 0 
22 -0.317808 0.886748 -0.326521 0.0778391 0.64207 0.325454 0.108809 0 -1.96151 0 
23 -0.379324 0.204463 0.656711 0.618902 0.935539 0.368876 0.0563618 0 -0.980509 0 
24 0.749522 0.184191 -0.617346 -0.152231 0.813488 0.167516 0.090656 0 -0.980509 0 
25 -0.459423 0.823561 0.204821 -0.262158 0.734027 0.239785 0.0470079 0 -0.980509 0 
26 -0.200355 0.387126 0.344417 0.831486 0.568103 0.465739 0.0502484 0 -0.980509 0 
ITEM: TIMESTEP
7000
ITEM: NUMBER OF ENTRIES
27
ITEM: BOX BOUNDS mm ff mm
-7.11219 2
0 1
-0.011213 0.141213
ITEM: ENTRIES c_bid c_quat[1] c_quat[2] c_quat[3] c_quat[4] c_pos[1] c_pos[2] c_pos[3] c_vel[1] c_vel[2] c_vel[3] 
1 0.624209 0.0657186 0.113391 -0.770186 0.684255 0.0181222 0.0342095 -0.598626 -0.676641 -0.340175 
2 -0.254368 0.175066 -0.950125 0.0437254 0.88225 0.0134338 0.0311907 0.0113621 -0.0106079 0.00961157 
3 0.126249 -0.0944163 0.839177 0.520509 0.802592 0.0229695 0.0912294 -0.15754 0.0914788 -0.0638071 
4 -0.278425 0.813621 -0.393695 -0.324815 0.727163 0.0208916 0.118605 -0.0418554 -0.29387 -0.0363099 
5 -0.266648 -0.663725 0.275259 0.642339 0.519384 0.0133761 0.006658 -0.00403312 -0.000619303 0.000463039 
6 0.0679918 0.931952 0.335916 0.118338 0.955534 0.0140385 0.0679458 0.0070463 -0.0320371 0.0338432 
7 0.272726 0.666503 0.312011 0.619712 0.776924 0.01342 0.121065 -0.0160939 -0.0860825 -0.00413703 
8 -0.00189221 0.577722 0.81623 -0.00130113 0.660442 0.0130628 0.0194951 0.000163687 -1.48038e-06 -8.28439e-07 
10 -0.43454 -0.326923 0.607152 -0.579364 0.601647 0.0224609 0.103367 -0.125594 -0.219268 0.100161 
9 -0.0894913 -0.966019 0.145187 0.194215 0.960102 0.0228362 0.0607962 -0.0725612 0.0756769 -0.0865668 
11 0.261714 -0.602332 -0.255411 0.709554 0.735593 0.181558 0.05742 0.168783 -0.665311 0.159181 
12 -0.40281 0.648008 -0.293269 0.576041 0.868199 0.0152684 0.0144151 -0.0171575 -0.137046 -0.0196989 
13 0.0699864 -0.963 -0.0598236 -0.253287 0.859927 0.0168007 0.0768101 -0.0455599 -0.032422 -0.0124962 
14 -0.314104 -0.590331 0.24812 0.700917 0.92007 0.0144602 0.100261 0.0305357 0.00983253 -0.0785536 
15 0.479824 0.601597 0.637352 -0.0403947 0.676049 0.158145 0.0761498 -0.567563 0.00920573 0.086287 
16 0.464335 0.791584 -0.267213 0.293913 0.7315 0.0370389 0.00913257 0.168975 -0.13155 0.305951 
17 0.0660789 0.00177047 0.633049 0.771285 0.879273 0.130948 0.0890231 -0.131374 -0.483311 -0.256328 
18 -0.160844 0.501453 -0.668132 -0.525618 0.71508 0.0395317 0.0355431 -0.265894 -0.267657 0.177556 
19 0.402246 -0.633244 -0.646484 0.13878 0.617941 0.0390589 0.0341122 0.223274 -0.126584 -0.497758 
20 -0.574414 -0.280297 0.109753 -0.761207 0.581696 0.0186297 0.102644 0.173702 -0.0511256 -0.282354 
21 -0.11447 -0.0374603 -0.947639 0.295761 0.606658 0.102712 0.107392 0.678608 1.02071 0.639101 
22 -0.317808 0.886748 -0.326521 0.0778391 0.64207 0.0802533 0.108809 0 -2.94251 0 
23 -0.379324 0.204463 0.656711 0.618902 0.935539 0.221775 0.0563618 0 -1.96151 0 
24 0.580405 -0.0264277 -0.646392 -0.49458 0.817012 0.0499533 0.0926904 0.392368 1.25696 0.225128 
25 -0.71515 -0.600212 -0.356283 -0.0369939 0.751645 0.108829 0.037548 0.256339 -1.7404 -0.146748 
26 -0.200355 0.387126 0.344417 0.831486 0.568103 0.318638 0.0502484 0 -1.96151 0 
27 0.672734 -0.255642 0.404731 0.564153 0.654457 0.204203 0.0382504 0 -0.980509 0 
ITEM: TIMESTEP
8000
ITEM: NUMBER OF ENTRIES
29
ITEM: BOX BOUNDS mm ff mm
-7.11219 2
0 1
-0.011213 0.141213
ITEM: ENTRIES c_bid c_quat[1] c_quat[2] c_quat[3] c_quat[4] c_pos[1] c_pos[2] c_pos[3] c_vel[1] c_vel[2] c_vel[3] 
1 -0.234261 -0.834891 0.497528 -0.0233428 0.677312 0.02345 0.0413885 -0.028511 -0.340233 0.105368 
2 -0.247974 0.127437 -0.959793 0.0326393 0.882464 0.0133696 0.0312996 6.76509e-07 1.49377e-08 4.37222e-07 
3 -0.789797 0.0624072 -0.0376029 0.609026 0.785515 0.0198991 0.0928906 -0.0492083 -0.0971066 -0.00977741 
4 0.467279 0.439016 -0.717562 -0.272064 0.719934 0.0156263 0.110515 -0.00787635 -0.191424 0.0289605 
5 -0.468677 -0.530837 0.484044 0.514059 0.51945 0.0132853 0.00438273 0.000410995 0.00229669 -0.0124554 
6 0.0536637 0.816323 0.570822 0.0700007 0.954236 0.0134789 0.0674579 -0.0195227 0.0284772 -0.00649919 
7 0.504297 0.426647 0.680628 0.316864 0.77663 0.0131907 0.120345 -0.00815429 -0.00692946 -0.0411522 
8 -0.00189212 0.577768 0.816198 -0.00130126 0.660443 0.0130628 0.0194951 4.48157e-08 -2.93548e-12 -2.32276e-10 
10 -0.331179 -0.751158 0.560311 0.110155 0.598462 0.0179606 0.118819 0.0417517 -0.201323 0.234293 
9 -0.241958 -0.941301 -0.229485 0.0523929 0.951682 0.0187347 0.0567645 -0.123244 -0.0466307 0.0254196 
11 0.338373 -0.172615 0.711969 -0.5906 0.752471 0.0659769 0.0733381 0.168783 -1.64631 0.159181 
12 0.403732 0.51315 0.682969 0.327461 0.865998 0.0135196 0.00940536 0.0142189 -0.000252437 0.0279619 
13 0.513888 -0.0736621 0.852085 -0.066671 0.861026 0.0139594 0.0779363 0.0213166 -0.0413085 0.0759216 
14 -0.487968 -0.479853 0.374149 0.625812 0.920242 0.01316 0.099934 0.0100091 -0.011286 0.0373479 
15 0.181207 -0.352511 0.417255 0.817801 0.638902 0.124333 0.0705942 0.0512715 -0.519894 -0.359371 
16 -0.55696 0.215249 0.707992 -0.377108 0.749228 0.0197604 0.00619791 0.128753 0.129099 -0.208368 
17 -0.307731 -0.929528 0.0192102 0.202263 0.866136 0.0335665 0.0633903 -0.131374 -1.46431 -0.256328 
18 -0.446779 0.319181 -0.296304 0.781483 0.689841 0.039456 0.044797 -0.243196 -0.0124511 0.0423476 
19 0.689861 0.112739 0.703302 0.129415 0.634465 0.0177325 0.0189222 -0.218298 -0.135633 0.19179 
20 0.731737 0.197055 -0.0150592 -0.652307 0.609073 0.0168176 0.0648441 0.213977 0.0412801 0.0542162 
21 -0.177137 0.83115 -0.254387 0.461626 0.615012 0.0915433 0.0658706 -0.457073 -1.06243 -0.468294 
22 -0.611655 0.588775 0.338637 -0.405644 0.546085 0.0796878 0.125799 -0.879131 0.390314 -0.130025 
23 -0.478461 0.0670604 0.65952 0.575857 0.927866 0.0535384 0.0580278 -0.4979 2.03143 0.108026 
24 0.628579 -0.0919965 0.737784 -0.228253 0.856249 0.126599 0.115203 0.392368 0.275959 0.225128 
25 -0.841726 -0.475501 0.134751 0.217345 0.780014 0.0745509 0.0577022 0.309708 0.948744 0.531538 
26 -0.200355 0.387126 0.344417 0.831486 0.568103 0.0734372 0.0502484 0 -2.94251 0 
27 0.672734 -0.255642 0.404731 0.564153 0.654457 0.0571017 0.0382504 0 -1.96151 0 
28 0.0362253 0.917976 0.385865 -0.084357 0.694264 0.17323 0.100574 0 -0.980509 0 
29 -0.194339 0.0914686 0.925554 0.311795 0.6966 0.291921 0.108271 0 -0.980509 0 
ITEM: TIMESTEP
9000
ITEM: NUMBER OF ENTRIES
36
ITEM: BOX BOUNDS mm ff mm
-7.11219 2
0 1
-0.011213 0.141213
ITEM: ENTRIES c_bid c_quat[1] c_quat[2] c_quat[3] c_quat[4] c_pos[1] c_pos[2] c_pos[3] c_vel[1] c_vel[2] c_vel[3] 
1 -0.113524 0.579853 0.805798 -0.0396569 0.68403 0.0158491 0.0445707 0.0158815 -0.0359984 -0.102353 
2 -0.239418 0.228468 -0.941882 0.0577933 0.881777 0.0133539 0.0308864 -0.0205491 -0.00211746 -0.0111686 
3 -0.979427 0.00453799 0.05725 -0.193454 0.782022 0.0152938 0.091879 0.00149706 -0.00588852 0.0655155 
4 0.307275 0.69067 -0.511328 -0.408779 0.719089 0.0133168 0.113037 0.0208058 -0.0397089 -0.0538208 
5 -0.390174 -0.594781 0.402872 0.575929 0.519419 0.0131068 0.00529707 0.00132272 -0.0133264 -0.0404528 
6 0.0304963 0.946797 0.30647 0.0933926 0.955929 0.0132798 0.0677457 0.00393708 0.000765799 0.000784033 
7 0.454914 0.518823 0.612845 0.385095 0.776891 0.0132343 0.121215 -0.00289852 -0.00234443 -0.0095643 
8 -0.00189212 0.577768 0.816198 -0.00130126 0.660443 0.0130628 0.0194951 5.06225e-12 1.52326e-15 -2.65992e-14 
10 -0.0773996 -0.895455 0.239377 0.367244 0.597996 0.0138664 0.116637 -0.0236288 -0.00304636 0.0207786 
9 -0.0645135 0.234347 -0.969967 -0.00909467 0.939501 0.0141818 0.0553173 -0.071773 -0.0271301 -0.0063823 
11 0.31768 -0.580061 -0.423617 0.618997 0.822003 0.107818 0.076842 0.87025 0.790753 -0.00615417 
12 0.44396 0.428548 0.744001 0.256336 0.865452 0.0132516 0.00853346 -0.00147731 -0.00234337 -0.00195984 
13 0.447972 0.480675 0.685187 0.314312 0.863542 0.0130726 0.0834812 0.0295404 -0.0260055 0.0673734 
14 -0.463147 -0.494108 0.355077 0.644416 0.92031 0.0130768 0.100197 0.00968865 -0.0130658 0.0361271 
15 0.484402 0.693518 0.46557 -0.260063 0.636251 0.0303453 0.0378169 -0.715825 -0.804547 -0.0494271 
16 -0.0493559 0.235502 0.961695 -0.131321 0.754997 0.0173737 0.0151128 0.0842416 -0.0442963 -0.0325472 
17 -0.199426 0.418689 -0.867925 0.177862 0.877579 0.0252593 0.0494575 -0.0628371 -0.111416 0.00863191 
18 -0.813014 0.556159 -0.100876 -0.13971 0.669077 0.0311761 0.0509607 -0.122796 0.12826 0.143544 
19 0.392126 0.0264244 -0.00259521 -0.919528 0.624443 0.0164431 0.0147126 -0.0416045 -0.194442 -0.126111 
20 -0.909596 -0.0800265 0.185177 0.363235 0.628328 0.013514 0.0731907 0.201623 -0.0285817 0.0706415 
21 -0.252429 0.154985 -0.392087 0.870935 0.598327 0.0329637 0.0468738 0.234423 0.274357 0.165819 
22 -0.290895 -0.381845 0.561034 -0.6744 0.524259 0.091069 0.105536 0.440081 -0.251986 -0.17846 
23 -0.725049 -0.660746 0.192505 0.0256996 0.878076 0.207632 0.0688304 -0.4979 1.05043 0.108026 
24 -0.822982 0.131429 -0.507556 0.218666 0.900318 0.110049 0.120211 0.504246 -0.600454 -0.118397 
25 0.16349 0.873972 -0.148713 0.432816 0.810985 0.120375 0.110856 0.309708 -0.0322564 0.531538 
26 -0.360291 -0.402464 -0.350591 -0.765049 0.644222 0.11442 0.116884 -0.0684905 0.03667 -0.639766 
27 0.444015 0.705609 0.524194 -0.173746 0.685036 0.0876569 0.116529 -0.462788 -0.352195 -0.553067 
28 -0.364154 -0.138866 0.189744 0.901169 0.702827 0.0381308 0.108115 0.246007 -1.61434 0.218499 
29 -0.194339 0.0914686 0.925554 0.311795 0.6966 0.14482 0.108271 0 -1.96151 0 
30 0.695401 0.00147926 -0.532545 0.482505 0.857154 0.0622576 0.0206531 0 -0.980509 0 
31 0.657678 0.547391 -0.399574 -0.328883 0.572441 0.336437 0.0535772 0 -0.980509 0 
32 -0.115548 0.860326 0.340764 -0.361064 0.808087 0.118675 0.0733434 0 -0.980509 0 
33 0.335615 -0.0792343 0.860608 0.37475 0.856943 0.355892 0.099313 0 -0.980509 0 
34 0.44471 0.678526 -0.268255 -0.519494 0.732272 0.400184 0.102477 0 -0.980509 0 
35 0.856432 0.14266 -0.0868297 -0.4885 0.648062 0.224295 0.0616337 0 -0.980509 0 
36 0.123525 -0.338495 0.695598 -0.621536 0.91186 0.476545 0.0621035 0 -0.980509 0 
ITEM: TIMESTEP
10000
ITEM: NUMBER OF ENTRIES
36
ITEM: BOX BOUNDS mm ff mm
-7.11219 2
0 1
-0.011213 0.141213
ITEM: ENTRIES c_bid c_quat[1] c_quat[2] c_quat[3] c_quat[4] c_pos[1] c_pos[2] c_pos[3] c_vel[1] c_vel[2] c_vel[3] 
1 -0.0400581 0.938186 0.331637 -0.0906545 0.688755 0.0134372 0.0430983 0.00880247 -0.0302474 -0.0148992 
2 -0.213125 0.485692 -0.838752 0.123192 0.880136 0.0132437 0.029996 0.0266888 -0.00682296 0.0145057 
3 -0.990271 0.0120639 0.0964355 -0.0995925 0.782488 0.0132011 0.0923233 -0.0456102 0.00801606 -0.0168383 
4 0.467 0.0226536 -0.883879 -0.0124616 0.721798 0.0132995 0.108438 -0.0132167 -0.000758467 0.0418252 
5 -0.423552 -0.569867 0.437299 0.551928 0.519429 0.0131446 0.00497134 0.000122515 0.00125631 -0.00406857 
6 0.0368801 0.923127 0.37176 0.090947 0.955491 0.0131656 0.0676594 0.018427 0.00459292 0.0037095 
7 0.480918 0.474286 0.647935 0.352065 0.776751 0.013099 0.120754 -0.0087297 -0.0101092 -0.0288026 
8 -0.00189212 0.577768 0.816198 -0.00130126 0.660443 0.0130628 0.0194951 -1.44639e-14 9.7062e-15 1.39789e-15 
10 0.101165 -0.893214 -0.253739 0.357142 0.595092 0.0133221 0.119087 -0.0271688 -0.00530829 0.0258623 
9 -0.0344565 0.723985 -0.688003 0.0361897 0.935843 0.0133099 0.0552297 -0.0356554 -0.00560265 -0.00359616 
11 0.776571 -0.625927 -0.0293697 0.0654969 0.883656 0.0671179 0.0660009 0.608612 -0.919546 -0.111691 
12 0.415313 0.5324 0.655941 0.337352 0.865817 0.0132166 0.00809687 -0.00531123 -0.00191099 -0.00433339 
13 0.228839 0.760469 0.349689 0.497028 0.864947 0.0130618 0.0866892 0.0260925 -0.0199088 0.0595212 
14 -0.46699 -0.491964 0.358 0.64166 0.920295 0.0130918 0.100137 -0.00365002 0.00464468 -0.0135859 
15 0.300541 -0.551809 -0.777884 -0.00890291 0.601351 0.0244716 0.0645098 0.00763344 0.237397 0.00561832 
16 -0.223163 0.150229 0.962656 -0.030381 0.756842 0.0133065 0.0151286 0.00349679 0.0309064 -0.00264419 
17 -0.156151 -0.837123 -0.363044 -0.378208 0.875706 0.0137498 0.0539456 0.0434619 -0.120249 0.00838577 
18 -0.807394 0.409285 0.189906 -0.38018 0.663575 0.0189921 0.0637247 -0.0526665 -0.048961 0.228392 
19 -0.366783 0.103061 0.0526747 -0.923079 0.625743 0.0134542 0.0136057 -0.00400423 -0.0283271 0.0143616 
20 0.885454 -0.0350688 -0.0781592 0.456763 0.640897 0.013791 0.0786045 0.0666312 0.0177364 -0.0101095 
21 -0.121529 0.957637 -0.249616 0.0765117 0.582442 0.0355528 0.0640858 -0.308132 -0.254468 0.159809 
22 -0.542887 -0.6271 -0.476903 0.290832 0.554312 0.029785 0.087827 -0.685399 -0.332625 -0.224405 
23 -0.263549 -0.562172 -0.537575 -0.570542 0.828286 0.263625 0.079633 -0.4979 0.0694333 0.108026 
24 -0.399761 -0.680996 0.568764 0.230096 0.942661 0.019731 0.107772 -0.53627 0.839613 -0.195249 
25 0.0478171 -0.421032 -0.33167 -0.842877 0.840463 0.0721085 0.105644 0.31494 -0.972229 -0.249266 
26 0.539457 -0.356133 -0.762665 -0.0222789 0.637373 0.0690375 0.0529074 -0.0684905 -0.94433 -0.639766 
27 -0.513278 0.558854 0.325456 -0.564186 0.651738 0.0496974 0.0857339 -0.022682 0.31801 0.25098 
28 0.213807 0.610856 0.418386 0.637256 0.720745 0.0181726 0.116903 0.0597811 0.326933 0.249993 
29 -0.0247555 -0.188347 -0.228948 -0.954723 0.678921 0.0551343 0.0657367 -0.388107 0.829453 -0.928013 
30 -0.392259 0.855101 0.311086 0.13476 0.875904 0.0262239 0.020249 0.284261 -0.11668 0.0303936 
31 0.657678 0.547391 -0.399574 -0.328883 0.572441 0.189336 0.0535772 0 -1.96151 0 
32 -0.0961201 -0.560281 -0.249853 -0.783849 0.833459 0.0423002 0.0835691 0.261637 -1.23221 0.105537 
33 0.335615 -0.0792343 0.860608 0.37475 0.856943 0.208791 0.099313 0 -1.96151 0 
34 0.44471 0.678526 -0.268255 -0.519494 0.732272 0.253083 0.102477 0 -1.96151 0 
35 0.856432 0.14266 -0.0868297 -0.4885 0.648062 0.0771941 0.0616337 0 -1.96151 0 
36 0.123525 -0.338495 0.695598 -0.621536 0.91186 0.329444 0.0621035 0 -1.96151 0 
ITEM: TIMESTEP
11000
ITEM: NUMBER OF ENTRIES
36
ITEM: BOX BOUNDS mm ff mm
-7.10955 2
0 1
-0.011213 0.141213
ITEM: ENTRIES c_bid c_quat[1] c_quat[2] c_quat[3] c_quat[4] c_pos[1] c_pos[2] c_pos[3] c_vel[1] c_vel[2] c_vel[3] 
1 -0.0460469 0.896175 0.430665 -0.0963194 0.690876 0.0131018 0.0431625 0.0102519 0.00646176 0.00361604 
2 -0.218048 0.135509 -0.966009 0.0302988 0.885678 0.013372 0.0311275 0.0266918 -1.26963e-05 3.1303e-05 
3 -0.995697 6.61532e-05 0.0926467 0.00216961 0.785738 0.0132464 0.0924214 0.029824 0.000748259 0.000617061 
4 0.461403 0.369449 -0.776731 -0.217493 0.722824 0.0131538 0.111607 0.0216734 -0.019473 0.0162559 
5 -0.409305 -0.580899 0.42267 0.562473 0.522037 0.0130902 0.00512279 0.0265055 -0.000180187 0.000670449 
6 0.0422307 0.899156 0.426495 0.0885267 0.957776 0.0130888 0.0675915 0.043239 -0.00583622 0.00331912 
7 0.481983 0.471814 0.650172 0.349801 0.779361 0.0130909 0.120756 0.0305778 0.00777326 0.0134862 
8 -0.00189419 0.577525 0.81637 -0.00130165 0.663083 0.0130634 0.0194952 0.0240971 0.00210155 1.30353e-05 
10 0.15739 -0.841393 -0.387211 0.342569 0.59698 0.013062 0.119075 0.0265007 1.39403e-08 2.86305e-05 
9 -0.00914088 0.981059 -0.187155 0.0491205 0.934692 0.0132472 0.0548502 -0.020313 -0.0104193 -0.00471313 
11 -0.653208 0.262925 -0.663709 -0.25235 0.951427 0.040805 0.0727579 0.854333 -0.401705 0.132022 
12 0.442032 0.485577 0.686275 0.312808 0.868135 0.0130631 0.00797578 0.0259539 0.000970663 -0.00126589 
13 0.325368 0.750523 0.376549 0.434811 0.868267 0.0169496 0.0864985 0.0849705 0.344715 0.0716308 
14 -0.455356 -0.498343 0.349083 0.649959 0.922942 0.0130721 0.100244 0.02853 0.00353166 0.00743077 
15 0.896018 -0.0224429 0.434108 -0.0905456 0.608266 0.015378 0.061656 0.256891 -0.0336619 -0.0914825 
16 -0.233646 0.0687936 0.969748 -0.0163121 0.758796 0.0131108 0.0154076 0.0135514 0.00375667 0.0066497 
17 -0.183499 -0.801161 -0.305142 -0.480996 0.88002 0.0132005 0.0574997 0.0183096 -0.00453698 -0.0154756 
18 -0.377985 -0.290215 0.118709 0.871098 0.67265 0.0141607 0.0726461 0.084236 0.011522 0.0114318 
19 0.531306 -0.71064 -0.379754 -0.261709 0.627985 0.0241525 0.0206323 0.0304648 -0.0916539 0.162415 
20 0.613893 -0.056758 -0.0444823 0.786089 0.641513 0.0133726 0.0782006 0.00901222 -0.00070106 -0.00253766 
21 0.546706 0.148355 -0.812052 -0.140265 0.591401 0.0149733 0.0732424 0.0761517 0.0234642 -0.00298164 
22 -0.188101 0.185519 0.709153 0.653683 0.509302 0.0224967 0.0684255 0.317701 0.236304 -0.0417368 
23 0.436791 0.220693 -0.603311 -0.629702 0.778496 0.221518 0.0904357 -0.4979 -0.911567 0.108026 
24 0.416801 0.0338518 -0.0603908 -0.906357 0.896553 0.0612489 0.087693 -0.0098323 0.322614 -0.232184 
25 0.60879 0.00209233 0.720895 0.33118 0.898335 0.041505 0.0847806 0.386568 -0.25851 -0.147891 
26 0.368461 -0.213647 0.535779 -0.729063 0.647461 0.0289794 0.00680117 -0.165832 -0.299074 -0.0233528 
27 0.0498841 -0.711107 -0.446838 -0.540532 0.650088 0.0393335 0.109804 -0.0470394 0.171237 0.389657 
28 -0.742418 0.302174 -0.454806 0.388147 0.721128 0.0158349 0.121904 -0.0622807 0.10196 0.0427839 
29 -0.0679632 -0.95165 0.0494987 -0.295453 0.648224 0.0746399 0.0238498 -0.180181 -0.526754 0.384542 
30 -0.202288 -0.778463 0.226297 -0.549421 0.885794 0.019009 0.0121648 -0.0667259 -0.0255927 0.0888268 
31 -0.496081 -0.200596 0.649279 0.540465 0.609499 0.072055 0.0504903 1.08451 0.776761 -0.0903122 
32 -0.0775154 0.427452 0.443784 0.783793 0.833278 0.0791793 0.0381067 -0.0489773 0.282856 -0.561721 
33 0.269378 0.273464 0.579467 -0.718937 0.87463 0.0387546 0.0815212 0.618155 1.37009 -0.686429 
34 0.486684 0.583871 -0.433146 -0.484374 0.733398 0.0610243 0.101958 0.112109 2.30711 -0.0504183 
35 -0.154045 -0.2158 0.961117 -0.0771646 0.60696 0.113481 0.0153508 -0.165241 0.586164 0.685287 
36 0.123525 -0.338495 0.695598 -0.621536 0.91186 0.0842429 0.0621035 0 -2.94251 0 
ITEM: TIMESTEP
12000
ITEM: NUMBER OF ENTRIES
36
ITEM: BOX BOUNDS mm ff mm
-7.1069 2
0 1
-0.011213 0.141213
ITEM: ENTRIES c_bid c_quat[1] c_quat[2] c_quat[3] c_quat[4] c_pos[1] c_pos[2] c_pos[3] c_vel[1] c_vel[2] c_vel[3] 
1 -0.0445337 0.902792 0.416616 -0.0970297 0.69362 0.0130645 0.0431428 0.0417663 -0.00558765 -0.00331324 
2 -0.218051 0.13554 -0.966004 0.0303115 0.888331 0.0133719 0.0311273 0.02653 -2.17129e-10 -3.66811e-09 
3 -0.994849 0.00408885 0.0925612 -0.041131 0.788095 0.0131712 0.0923653 0.0180998 -0.00244029 -0.00158089 
4 0.467212 0.355088 -0.781291 -0.212626 0.725435 0.0130715 0.111766 0.0246319 -0.00154171 0.00353485 
5 -0.402441 -0.585998 0.415579 0.567399 0.524688 0.0130621 0.00519766 0.026622 0.00106764 -0.00274086 
6 -0.0249356 0.136701 -0.990279 -0.00625493 0.972286 0.014468 0.0705374 0.0291608 0.0771266 0.045322 
7 0.484667 0.466778 0.653796 0.346072 0.782001 0.0130721 0.120713 0.02704 0.00109153 0.00168308 
8 -0.00189372 0.577768 0.816198 -0.0013024 0.665738 0.0130628 0.0194952 0.0265314 -8.97552e-11 -7.1322e-09 
10 0.157386 -0.841398 -0.387201 0.342571 0.599634 0.013062 0.119075 0.02653 -1.89849e-12 -3.67337e-09 
9 -0.476736 -0.422901 0.769755 0.0368001 0.96377 0.0302806 0.0419494 -0.363758 0.0319265 -0.251776 
11 0.287455 -0.780834 0.151132 -0.533691 0.945378 0.0186006 0.0862212 -0.0212186 0.0787326 0.321771 
12 0.44125 0.493431 0.677041 0.32162 0.870607 0.0130943 0.00804725 0.0277495 0.00121499 0.00276041 
13 0.420077 0.876256 0.172983 0.160586 0.872486 0.0202326 0.0947034 -0.0355723 -0.0878398 0.113581 
14 -0.458452 -0.49667 0.351459 0.647779 0.925588 0.0130604 0.100216 0.0270675 0.000723605 0.00200552 
15 -0.857524 -0.0674099 -0.503746 -0.0796752 0.619931 0.0142863 0.0468427 0.0660649 -0.0608295 -0.130311 