ITEM: TIMESTEP
0
ITEM: NUMBER OF ENTRIES
0
ITEM: BOX BOUNDS mm ff mm
-7.11219 2
0 1
-0.011213 0.141213
ITEM: ENTRIES c_bid c_quat[1] c_quat[2] c_quat[3] c_quat[4] c_pos[1] c_pos[2] c_pos[3] c_vel[1] c_vel[2] c_vel[3] 
ITEM: TIMESTEP
1000
ITEM: NUMBER OF ENTRIES
300
ITEM: BOX BOUNDS mm ff mm
-7.11219 2
0 1
-0.011213 0.141213
ITEM: ENTRIES c_bid c_quat[1] c_quat[2] c_quat[3] c_quat[4] c_pos[1] c_pos[2] c_pos[3] c_vel[1] c_vel[2] c_vel[3] 
1 0.108621 -0.0513005 0.579597 -0.806001 0.921868 0.221966 0.0772337 0 -0.980509 0 
2 0.205191 0.545005 0.125751 0.803152 0.784348 0.176539 0.102398 0 -0.980509 0 
3 -0.174176 0.560809 0.11009 -0.801895 0.93515 0.280997 0.110469 0 -0.980509 0 
4 -0.00276459 0.556274 -0.119576 -0.822346 0.707576 0.290157 0.0975749 0 -0.980509 0 
5 0.497549 -0.303195 0.660756 0.473201 0.673003 0.157077 0.0299992 0 -0.980509 0 
6 -0.391973 0.789934 0.0690172 0.466474 0.912337 0.414642 0.0520656 0 -0.980509 0 
7 0.497091 -0.0310528 0.566693 0.65635 0.781332 0.22113 0.0636556 0 -0.980509 0 
8 0.709481 0.197565 -0.531861 0.418006 0.757917 0.140733 0.0535221 0 -0.980509 0 
9 -0.0307574 0.299993 0.777764 -0.55149 0.692927 0.0567201 0.0534208 0 -0.980509 0 
10 0.38305 0.38206 0.731669 0.414685 0.686697 0.259226 0.0341783 0 -0.980509 0 
11 -0.325582 0.308597 0.782629 -0.431574 0.64647 0.135107 0.0165501 0 -0.980509 0 
12 0.717996 -0.23397 0.180768 -0.630129 0.749486 0.335048 0.0175695 0 -0.980509 0 
13 0.81035 -0.0830451 -0.522256 -0.252358 0.886093 0.0954669 0.0579901 0 -0.980509 0 
14 0.764904 0.408904 -0.433973 -0.243694 0.667815 0.257296 0.0252622 0 -0.980509 0 
15 0.164775 0.182363 0.877079 -0.412705 0.851937 0.0952017 0.043429 0 -0.980509 0 
16 -0.303041 -0.369073 0.803563 -0.355298 0.547642 0.21914 0.101325 0 -0.980509 0 
17 0.818112 0.193193 -0.541055 -0.0250741 0.787235 0.108465 0.0725893 0 -0.980509 0 
18 -0.312919 0.193114 0.434613 0.822131 0.533908 0.297334 0.051321 0 -0.980509 0 
19 0.400191 -0.296924 0.84598 0.189738 0.725498 0.0886147 0.0666841 0 -0.980509 0 
20 0.454547 0.725279 0.507578 0.0986006 0.753929 0.1977 0.017088 0 -0.980509 0 
21 0.544205 -0.176073 0.346605 0.743441 0.919274 0.0630287 0.0604444 0 -0.980509 0 
22 0.145023 0.693746 0.680893 -0.184581 0.883414 0.217266 0.028348 0 -0.980509 0 
23 0.314747 0.607601 -0.689679 0.236851 0.692724 0.0964259 0.0874002 0 -0.980509 0 
24 0.783068 0.0908812 0.282639 0.546498 0.650591 0.169036 0.0750081 0 -0.980509 0 
25 0.573756 -0.200412 -0.27801 -0.743875 0.759768 0.281444 0.0876093 0 -0.980509 0 
26 0.426689 0.724934 0.540747 -0.000230527 0.714964 0.195913 0.106146 0 -0.980509 0 
27 0.763346 -0.113635 0.128164 0.622867 0.943525 0.423934 0.0965179 0 -0.980509 0 
28 0.278581 0.923793 0.204684 0.164632 0.82799 0.0954676 0.0607097 0 -0.980509 0 
29 -0.219905 0.641386 0.16965 0.715182 0.708155 0.148694 0.106183 0 -0.980509 0 
30 0.659124 0.593607 -0.40212 0.226906 0.645214 0.0972222 0.0330471 0 -0.980509 0 
31 -0.445443 0.732554 0.123592 -0.49967 0.593284 0.209006 0.0221382 0 -0.980509 0 
32 -0.138271 0.276944 -0.359491 0.880312 0.830465 0.389094 0.103623 0 -0.980509 0 
33 0.663035 -0.507851 -0.526886 -0.157681 0.872943 0.103205 0.0706055 0 -0.980509 0 
34 0.618488 -0.367914 -0.372091 -0.586225 0.949763 0.351352 0.0238888 0 -0.980509 0 
35 -0.098445 -0.0012313 0.731641 -0.674543 0.925012 0.178697 0.0689266 0 -0.980509 0 
36 -0.136553 -0.295288 0.817691 0.47491 0.710124 0.127018 0.0295117 0 -0.980509 0 
37 0.608031 0.351713 -0.34999 0.619761 0.941332 0.137879 0.0613345 0 -0.980509 0 
38 0.18555 0.843155 -0.433913 -0.257644 0.71138 0.168832 0.0210072 0 -0.980509 0 
39 0.220702 0.00520236 0.944839 0.241954 0.789946 0.106287 0.0190541 0 -0.980509 0 
40 0.44325 0.707797 0.21011 0.508337 0.678333 0.291603 0.0728965 0 -0.980509 0 
41 0.563382 0.804514 0.165219 0.0897851 0.807125 0.276212 0.103221 0 -0.980509 0 
42 -0.41709 -0.247918 0.551939 -0.678186 0.685693 0.161652 0.0516865 0 -0.980509 0 
43 -0.178211 0.774902 -0.197545 0.573361 0.908598 0.356385 0.0686066 0 -0.980509 0 
44 0.306778 0.656281 -0.675191 0.138921 0.80749 0.393422 0.0890878 0 -0.980509 0 
45 0.864543 -0.137626 -0.46943 -0.115154 0.9238 0.434923 0.0675698 0 -0.980509 0 
46 0.669368 -0.340609 -0.65519 0.081603 0.692918 0.330797 0.0558218 0 -0.980509 0 
47 -0.296808 0.669139 0.621748 0.278545 0.91525 0.362064 0.0312425 0 -0.980509 0 
48 0.713416 0.277247 -0.204488 0.61021 0.741476 0.300229 0.018813 0 -0.980509 0 
49 -0.331432 -0.199485 0.905429 0.174804 0.884308 0.195434 0.0951327 0 -0.980509 0 
50 0.735737 0.342848 0.364731 -0.4562 0.908268 0.393066 0.0939797 0 -0.980509 0 
51 0.954612 0.141829 0.196232 0.173473 0.571645 0.290747 0.0772128 0 -0.980509 0 
52 0.694912 0.381959 0.14198 -0.592492 0.566632 0.320907 0.101677 0 -0.980509 0 
53 0.443391 0.552889 -0.535954 0.458771 0.839882 0.421663 0.0542743 0 -0.980509 0 
54 -0.362474 0.783171 0.0716006 0.500129 0.879729 0.202798 0.035508 0 -0.980509 0 
55 0.449358 -0.311647 0.396797 0.737229 0.858595 0.19058 0.101289 0 -0.980509 0 
56 0.0829906 0.804093 -0.188658 0.557633 0.792966 0.112661 0.101315 0 -0.980509 0 
57 -0.191891 0.311355 0.540057 -0.758007 0.535064 0.361527 0.0749057 0 -0.980509 0 
58 -0.481109 0.677763 0.550629 0.0773162 0.673662 0.0641898 0.0391346 0 -0.980509 0 
59 0.344034 0.00963373 0.906915 -0.243007 0.648558 0.379642 0.0888896 0 -0.980509 0 
60 -0.228875 0.243699 -0.333529 0.881468 0.786836 0.282253 0.087518 0 -0.980509 0 
61 0.121974 0.507105 0.614823 0.591573 0.562166 0.0871629 0.0663713 0 -0.980509 0 
62 -0.467073 0.182916 0.486398 0.715403 0.936007 0.0829065 0.0822644 0 -0.980509 0 
63 0.0412838 0.221785 -0.0611416 0.972301 0.576845 0.394123 0.037955 0 -0.980509 0 
64 0.249354 -0.497902 -0.180356 0.810794 0.537648 0.364879 0.0620417 0 -0.980509 0 
65 -0.0746641 0.520765 0.830953 -0.180958 0.648165 0.2423 0.113291 0 -0.980509 0 
66 -0.466634 0.506457 -0.465492 0.555942 0.868365 0.136061 0.0222018 0 -0.980509 0 
67 -0.368864 0.568887 0.709377 -0.192591 0.692429 0.282481 0.0431098 0 -0.980509 0 
68 0.688833 0.130136 0.636648 0.32133 0.701462 0.304102 0.088829 0 -0.980509 0 
69 0.346785 -0.399952 0.512856 -0.675838 0.707767 0.0736724 0.0828596 0 -0.980509 0 
70 0.641639 -0.520027 -0.551383 0.117674 0.734696 0.291009 0.0771973 0 -0.980509 0 
71 0.100113 0.469956 0.515901 -0.7092 0.564972 0.362462 0.104516 0 -0.980509 0 
72 -0.371372 -0.203041 -0.0311333 0.905476 0.525662 0.166381 0.0199932 0 -0.980509 0 
73 0.685644 0.202493 0.550404 -0.431213 0.608069 0.158459 0.0342373 0 -0.980509 0 
74 0.889822 0.0689707 -0.159068 -0.422087 0.613555 0.323113 0.0689384 0 -0.980509 0 
75 0.483637 0.667806 -0.56488 -0.0322669 0.703658 0.235626 0.0694959 0 -0.980509 0 
76 0.608297 -0.399618 -0.00092659 -0.685769 0.571407 0.174114 0.113698 0 -0.980509 0 
77 0.309348 0.862299 -0.3055 -0.25964 0.578419 0.194359 0.0761002 0 -0.980509 0 
78 0.0563398 0.640811 -0.354918 0.678395 0.568812 0.392048 0.0167906 0 -0.980509 0 
79 -0.291345 0.437748 -0.365186 0.768201 0.930273 0.432216 0.0936153 0 -0.980509 0 
80 0.147658 -0.150872 0.546527 0.810397 0.898084 0.381227 0.0484693 0 -0.980509 0 
81 -0.391586 0.175218 0.268455 0.862491 0.597295 0.106648 0.0397137 0 -0.980509 0 
82 0.892275 0.348372 0.287015 -0.01025 0.792142 0.436802 0.0642042 0 -0.980509 0 
83 0.201731 0.973484 -0.0526874 0.0941114 0.84086 0.117908 0.0486297 0 -0.980509 0 
84 0.106994 0.116753 0.942531 0.294205 0.57843 0.369676 0.114021 0 -0.980509 0 
85 0.524625 0.297689 0.10226 -0.791007 0.744791 0.121923 0.0198736 0 -0.980509 0 
86 0.957601 0.17346 -0.140399 -0.182208 0.565785 0.269255 0.0718027 0 -0.980509 0 
87 -0.0269838 0.857736 -0.510026 0.0586042 0.879732 0.24985 0.0368036 0 -0.980509 0 
88 0.0888155 0.918211 -0.109808 0.370057 0.750232 0.395174 0.0504471 0 -0.980509 0 
89 0.536517 0.671064 -0.158541 -0.486505 0.774291 0.144893 0.0349849 0 -0.980509 0 
90 -0.48244 0.826941 -0.111671 0.266365 0.889805 0.135217 0.0785282 0 -0.980509 0 
91 0.766356 -0.474832 -0.424526 0.0837287 0.599733 0.227851 0.101017 0 -0.980509 0 
92 0.022463 -0.368989 -0.0651798 0.926873 0.659444 0.177146 0.051401 0 -0.980509 0 
93 0.32579 0.228739 0.913435 0.0847059 0.91227 0.16471 0.0982655 0 -0.980509 0 
94 0.62186 -0.412696 -0.0881384 -0.6597 0.704029 0.438252 0.0562171 0 -0.980509 0 
95 0.364308 0.641151 -0.612495 -0.284701 0.676738 0.154925 0.0849883 0 -0.980509 0 
96 0.0812762 0.976381 0.0744001 0.185849 0.935618 0.398956 0.0443638 0 -0.980509 0 
97 0.284282 0.505828 -0.799539 0.155111 0.593345 0.359131 0.107162 0 -0.980509 0 
98 0.633939 0.453582 -0.462754 -0.422188 0.817948 0.298569 0.0425549 0 -0.980509 0 
99 0.170611 -0.48192 0.701046 0.497172 0.585707 0.138431 0.082649 0 -0.980509 0 
100 0.38624 0.907886 0.128954 0.0996596 0.847163 0.261201 0.0298409 0 -0.980509 0 
101 0.663325 0.370546 -0.58076 -0.292255 0.653726 0.373869 0.0321991 0 -0.980509 0 
102 0.414549 0.335916 0.55323 0.639724 0.803433 0.166703 0.0748105 0 -0.980509 0 
103 -0.496429 0.363256 0.534639 0.579452 0.686165 0.336853 0.102427 0 -0.980509 0 
104 -0.0516071 0.370449 0.630782 -0.679867 0.898993 0.192423 0.0430875 0 -0.980509 0 
105 0.64335 -0.656171 0.242839 -0.310757 0.809986 0.219236 0.105778 0 -0.980509 0 
106 0.992714 -0.117551 -0.0216686 0.0152229 0.569126 0.102553 0.0317019 0 -0.980509 0 
107 -0.30326 0.699958 -0.105284 0.637971 0.555946 0.0514089 0.0371112 0 -0.980509 0 
108 0.762499 -0.143285 0.55116 -0.307062 0.615838 0.422414 0.106568 0 -0.980509 0 
109 0.156394 -0.0874427 0.0833584 0.980279 0.906197 0.418103 0.093534 0 -0.980509 0 
110 0.438667 -0.21389 0.761361 -0.426793 0.609241 0.088686 0.0659457 0 -0.980509 0 
111 0.01849 0.778592 0.187686 -0.59852 0.708039 0.333972 0.0973724 0 -0.980509 0 
112 0.360562 0.748674 0.0195021 0.55597 0.663498 0.358161 0.0336614 0 -0.980509 0 
113 -0.221917 -0.0639008 0.905598 0.355755 0.700654 0.0742576 0.0414258 0 -0.980509 0 
114 -0.00244538 0.884672 0.0511109 -0.463397 0.688589 0.2383 0.107919 0 -0.980509 0 
115 -0.281009 0.920096 0.26914 -0.0449463 0.885085 0.3475 0.0391208 0 -0.980509 0 
116 -0.155633 0.471178 0.0964702 0.862823 0.939029 0.122104 0.0818967 0 -0.980509 0 
117 0.0380279 -0.418218 -0.209143 0.883123 0.742625 0.257978 0.0876104 0 -0.980509 0 
118 0.126423 -0.289603 0.0145552 0.948649 0.792841 0.162295 0.0524225 0 -0.980509 0 
119 0.857356 0.102655 -0.208233 0.459392 0.781288 0.330591 0.089971 0 -0.980509 0 
120 0.630311 0.546477 -0.485181 0.262051 0.681559 0.338833 0.0205225 0 -0.980509 0 
121 -0.494922 0.120005 0.633474 -0.582548 0.591326 0.397324 0.0876097 0 -0.980509 0 
122 -0.405684 0.716745 -0.484453 -0.294962 0.738084 0.0617546 0.107003 0 -0.980509 0 
123 0.848321 0.208714 0.480392 -0.0775388 0.91188 0.0683029 0.0214789 0 -0.980509 0 
124 0.627733 0.637905 0.405245 -0.18656 0.912491 0.41571 0.0373406 0 -0.980509 0 
125 -0.168378 0.291416 0.591999 -0.732299 0.854439 0.412403 0.0452307 0 -0.980509 0 
126 0.961219 -0.131474 -0.135882 -0.200769 0.894111 0.25263 0.0195764 0 -0.980509 0 
127 0.164784 0.16006 0.511678 -0.827896 0.648554 0.316821 0.0320101 0 -0.980509 0 
128 -0.0512306 0.154073 0.872247 0.461327 0.902076 0.389374 0.0835027 0 -0.980509 0 
129 0.610953 -0.611127 0.182383 0.469038 0.624949 0.0694374 0.0885439 0 -0.980509 0 
130 -0.138628 -0.310812 0.114455 0.933316 0.746388 0.289969 0.108646 0 -0.980509 0 
131 0.57974 0.280657 -0.0107529 -0.764864 0.52166 0.401483 0.0621008 0 -0.980509 0 
132 -0.253616 0.84454 -0.403825 -0.243632 0.617357 0.167368 0.0665727 0 -0.980509 0 
133 0.00411076 -0.447604 0.569062 -0.689784 0.871979 0.241554 0.0809732 0 -0.980509 0 
134 -0.169475 -0.126526 0.946865 0.242315 0.571214 0.348853 0.0227725 0 -0.980509 0 
135 0.267902 -0.181503 -0.0111629 0.946129 0.662699 0.270084 0.0551319 0 -0.980509 0 
136 0.848133 0.489017 0.20379 0.00150465 0.933893 0.227375 0.10292 0 -0.980509 0 
137 -0.218108 0.320283 0.76507 -0.51431 0.797353 0.31043 0.0800534 0 -0.980509 0 
138 0.461074 -0.137559 0.842481 -0.242307 0.743008 0.25339 0.110339 0 -0.980509 0 
139 0.315375 0.901598 -0.263219 0.135558 0.763561 0.380075 0.110915 0 -0.980509 0 
140 0.880096 0.133476 -0.425473 0.163058 0.671393 0.190567 0.0442655 0 -0.980509 0 
141 0.840227 0.0358905 -0.480194 0.249287 0.554979 0.127417 0.103128 0 -0.980509 0 
142 0.525385 0.177015 0.428424 -0.713505 0.775943 0.37802 0.0732255 0 -0.980509 0 
143 -0.0323632 -0.275214 0.561684 0.779564 0.930265 0.301128 0.0922813 0 -0.980509 0 
144 -0.392929 0.860027 -0.268033 -0.184711 0.804662 0.174977 0.0389393 0 -0.980509 0 
145 0.368058 0.699092 -0.312725 -0.527264 0.727598 0.128145 0.0615983 0 -0.980509 0 
146 -0.429335 -0.263496 0.828704 0.243909 0.853332 0.304673 0.0876049 0 -0.980509 0 
147 -0.152444 -0.276024 -0.110184 0.942566 0.82316 0.180747 0.081374 0 -0.980509 0 
148 0.173947 0.922519 -0.272991 0.210182 0.727852 0.103317 0.0430905 0 -0.980509 0 
149 -0.462421 0.459992 0.637808 -0.409603 0.592635 0.0631392 0.0246882 0 -0.980509 0 
150 -0.230875 -0.490567 -0.23665 0.806249 0.648476 0.301032 0.0910084 0 -0.980509 0 
151 -0.33655 0.0900708 0.748463 -0.564292 0.837686 0.0929007 0.0752404 0 -0.980509 0 
152 -0.233332 0.672551 0.114544 0.692901 0.776963 0.314123 0.0947402 0 -0.980509 0 
153 0.910451 -0.0324756 0.00492705 0.412311 0.922662 0.235111 0.106914 0 -0.980509 0 
154 0.908083 -0.15536 -0.383203 0.0663634 0.908442 0.323598 0.109245 0 -0.980509 0 
155 0.567914 -0.567545 0.207185 0.558964 0.823339 0.184894 0.107748 0 -0.980509 0 
156 -0.45199 0.775791 0.43399 -0.0742041 0.574982 0.0606048 0.0757843 0 -0.980509 0 
157 0.106188 0.94086 -0.290438 -0.138392 0.616086 0.305245 0.0910469 0 -0.980509 0 
158 0.624901 -0.504888 -0.050305 0.593343 0.606719 0.255393 0.0270971 0 -0.980509 0 
159 0.638062 0.626477 -0.424985 -0.140684 0.589736 0.338954 0.0283247 0 -0.980509 0 
160 -0.347817 -0.0862691 0.848066 -0.39034 0.729257 0.069015 0.113444 0 -0.980509 0 
161 0.21137 -0.0688429 0.158309 0.96204 0.751193 0.215219 0.026359 0 -0.980509 0 
162 -0.43942 -0.0388164 0.89002 0.115188 0.562965 0.181695 0.0679927 0 -0.980509 0 
163 0.829437 -0.337853 -0.443907 -0.0289281 0.727783 0.224418 0.077375 0 -0.980509 0 
164 0.235992 -0.415147 0.556842 -0.679623 0.680433 0.324393 0.0477249 0 -0.980509 0 
165 0.26441 -0.266383 0.906562 0.193064 0.839354 0.164547 0.113043 0 -0.980509 0 
166 -0.234963 0.403153 0.778527 0.419709 0.527217 0.0849136 0.0153518 0 -0.980509 0 
167 0.946399 -0.0835459 -0.198118 0.241035 0.576918 0.332779 0.0830004 0 -0.980509 0 
168 0.10355 0.972475 0.079147 0.193146 0.877438 0.389113 0.0851077 0 -0.980509 0 
169 0.758982 -0.569471 0.124358 0.290144 0.523933 0.344695 0.0523191 0 -0.980509 0 
170 0.956384 -0.0203121 -0.133123 0.259221 0.612909 0.231614 0.113165 0 -0.980509 0 
171 0.536599 -0.843753 -0.00810847 0.0088202 0.77865 0.2983 0.113743 0 -0.980509 0 
172 0.747348 -0.416252 -0.489803 -0.168222 0.714252 0.263334 0.0954595 0 -0.980509 0 
173 0.854779 0.0845824 0.497259 0.122197 0.877511 0.328761 0.0999011 0 -0.980509 0 
174 0.276089 0.451354 0.808788 -0.256741 0.660285 0.125765 0.0641065 0 -0.980509 0 
175 0.553571 0.270105 0.630497 0.472309 0.668087 0.112913 0.0617219 0 -0.980509 0 
176 0.688668 0.331438 -0.328132 0.55517 0.759619 0.355576 0.0692552 0 -0.980509 0 
177 0.902633 0.361188 0.155245 -0.175206 0.811897 0.0985673 0.0847524 0 -0.980509 0 
178 0.879352 0.18606 -0.339469 -0.277277 0.643336 0.335527 0.0313999 0 -0.980509 0 
179 0.183791 0.332585 0.554391 -0.740445 0.665285 0.295757 0.0287108 0 -0.980509 0 
180 0.12958 0.958491 -0.118791 0.224484 0.678754 0.0756614 0.0401165 0 -0.980509 0 
181 0.884226 -0.191005 0.262265 0.335974 0.66413 0.238095 0.0439087 0 -0.980509 0 
182 -0.147198 0.388567 0.48533 0.769287 0.813452 0.397756 0.102912 0 -0.980509 0 
183 0.598429 -0.302022 -0.299241 0.679058 0.661512 0.110181 0.083287 0 -0.980509 0 
184 0.719928 0.435604 0.220707 0.493195 0.521179 0.0862842 0.0743716 0 -0.980509 0 
185 0.610187 0.554494 -0.134761 0.549588 0.768858 0.397769 0.0570061 0 -0.980509 0 
186 -0.38835 0.0837497 0.538623 0.743004 0.867723 0.0947004 0.0373499 0 -0.980509 0 
187 0.465709 0.751864 -0.139731 -0.445298 0.670603 0.241361 0.0673642 0 -0.980509 0 
188 0.535034 -0.765228 0.357946 0.00627723 0.887448 0.0899668 0.0475481 0 -0.980509 0 
189 -0.497375 0.831192 0.248469 -0.00126526 0.676431 0.159217 0.0191462 0 -0.980509 0 
190 0.9298 0.138021 0.308916 0.144892 0.886948 0.274655 0.0596591 0 -0.980509 0 
191 0.764339 0.155665 -0.606428 -0.154269 0.888211 0.4082 0.0831814 0 -0.980509 0 
192 0.631489 -0.227209 0.693746 0.261369 0.628099 0.123074 0.05546 0 -0.980509 0 
193 -0.406876 0.392563 0.528312 -0.633429 0.906936 0.364803 0.0386976 0 -0.980509 0 
194 0.873223 -0.299622 0.322743 0.208676 0.788456 0.403679 0.0879963 0 -0.980509 0 
195 0.58089 0.651277 -0.0531938 0.485361 0.726322 0.173608 0.0865219 0 -0.980509 0 
196 0.788702 -0.080015 -0.33117 -0.511736 0.551355 0.268019 0.078282 0 -0.980509 0 
197 0.914141 0.150588 0.324053 -0.191464 0.867554 0.248533 0.10327 0 -0.980509 0 
198 -0.161175 0.234303 -0.17964 0.941729 0.766275 0.412176 0.0912573 0 -0.980509 0 
199 -0.424035 -0.482059 0.765773 0.0374775 0.763477 0.272414 0.045966 0 -0.980509 0 
200 -0.221925 0.778325 0.574236 -0.123337 0.714765 0.291925 0.0239916 0 -0.980509 0 
201 -0.224331 -0.199804 0.586992 0.751794 0.597256 0.299591 0.0378487 0 -0.980509 0 
202 0.269373 0.575711 -0.64991 -0.416668 0.59845 0.16413 0.0615966 0 -0.980509 0 
203 0.536622 0.484729 0.454713 0.519914 0.732648 0.274024 0.111359 0 -0.980509 0 
204 0.253756 0.575306 0.432382 0.646279 0.69905 0.196273 0.0182495 0 -0.980509 0 
205 0.200223 0.219278 0.454886 0.839587 0.583201 0.155939 0.0456363 0 -0.980509 0 
206 0.629595 -0.699368 -0.250232 -0.227767 0.541717 0.38485 0.072239 0 -0.980509 0 
207 0.507865 0.377159 -0.770416 -0.079263 0.588874 0.0576757 0.0687748 0 -0.980509 0 
208 -0.226021 0.95058 0.0342246 0.210096 0.919443 0.302331 0.0482872 0 -0.980509 0 
209 0.534019 0.0183919 0.135766 -0.834298 0.76948 0.118555 0.0685998 0 -0.980509 0 
210 -0.34264 0.773459 0.413642 0.336539 0.568402 0.387044 0.0931037 0 -0.980509 0 
211 0.760972 -0.52858 0.373594 -0.0441941 0.902131 0.0515116 0.0684192 0 -0.980509 0 
212 0.872955 -0.0662813 0.475172 0.0881304 0.860389 0.230802 0.103516 0 -0.980509 0 
213 -0.19754 0.835735 -0.438738 -0.264639 0.880145 0.301514 0.0175638 0 -0.980509 0 
214 0.583653 -0.264715 0.673426 -0.368475 0.58927 0.250109 0.0245727 0 -0.980509 0 
215 -0.265623 0.121509 0.816812 -0.497491 0.899172 0.178532 0.0773878 0 -0.980509 0 
216 0.690191 -0.276037 -0.292135 0.601745 0.744033 0.2797 0.0579899 0 -0.980509 0 
217 0.244862 0.639358 0.471772 0.555604 0.655922 0.315479 0.0943414 0 -0.980509 0 
218 0.55279 0.200083 0.808849 -0.0123921 0.908024 0.175435 0.0632526 0 -0.980509 0 
219 0.954103 0.0690391 0.266555 -0.117766 0.867702 0.175976 0.0379751 0 -0.980509 0 
220 -0.129251 -0.43752 -0.423542 0.782613 0.699216 0.389928 0.110843 0 -0.980509 0 
221 -0.254258 0.903581 -0.225071 0.261223 0.692349 0.226198 0.0579792 0 -0.980509 0 
222 0.532922 -0.841942 0.0842828 0.00480756 0.74249 0.151845 0.0461451 0 -0.980509 0 
223 0.777217 -0.335354 0.383838 0.368972 0.757838 0.109513 0.0775446 0 -0.980509 0 
224 -0.442325 0.359846 0.337491 0.748972 0.895725 0.285646 0.0441872 0 -0.980509 0 
225 -0.490101 0.543831 0.0205414 0.680901 0.731284 0.150746 0.0279556 0 -0.980509 0 
226 0.0157669 -0.348456 -0.291008 0.890867 0.618851 0.325887 0.0241201 0 -0.980509 0 
227 -0.0660036 0.952623 -0.198765 0.220559 0.871743 0.156092 0.0896338 0 -0.980509 0 
228 0.164164 0.826875 0.426308 0.328008 0.824743 0.13405 0.0735344 0 -0.980509 0 
229 -0.0833404 0.823277 0.554933 -0.0855435 0.878792 0.351659 0.114045 0 -0.980509 0 
230 0.0105156 0.87609 -0.201426 0.43793 0.763234 0.0698568 0.0506838 0 -0.980509 0 
231 0.830683 0.115554 0.285016 -0.464088 0.870501 0.323205 0.0550288 0 -0.980509 0 
232 0.139516 0.460478 0.530597 -0.697826 0.798966 0.322644 0.0978039 0 -0.980509 0 
233 0.469312 0.841817 -0.230837 0.133432 0.886838 0.152434 0.0187049 0 -0.980509 0 
234 0.649192 0.268902 -0.249049 0.666495 0.811533 0.39553 0.0460428 0 -0.980509 0 
235 0.0540641 0.779165 0.0722426 -0.620291 0.674105 0.185915 0.0992451 0 -0.980509 0 
236 0.703792 0.46167 -0.0311668 -0.539042 0.549106 0.309736 0.0635529 0 -0.980509 0 
237 -0.135972 0.692098 -0.511068 0.491245 0.860718 0.179016 0.11116 0 -0.980509 0 
238 0.29948 0.66645 -0.682257 -0.0260967 0.773848 0.409434 0.0692467 0 -0.980509 0 
241 -0.40593 -0.366395 0.696953 0.46393 0.838864 0.465384 0.0814961 0 -0.980509 0 
269 0.348142 0.151077 -0.228693 0.896478 0.874555 0.467257 0.0664967 0 -0.980509 0 
276 0.116146 0.943748 0.233145 -0.203698 0.910681 0.468279 0.0419149 0 -0.980509 0 
288 -0.3536 0.220944 0.5435 -0.728532 0.946474 0.468004 0.0240682 0 -0.980509 0 
297 0.396775 -0.486182 0.777527 0.0406025 0.768149 0.467864 0.0710194 0 -0.980509 0 
259 -0.0154439 -0.213473 0.953551 -0.211968 0.599982 0.469892 0.0540765 0 -0.980509 0 
264 0.322 0.768487 -0.426132 0.352358 0.919278 0.472618 0.0704584 0 -0.980509 0 
283 -0.14537 -0.229954 0.925065 0.265036 0.685231 0.472695 0.0546138 0 -0.980509 0 
267 0.682967 0.112306 -0.684923 0.227646 0.800157 0.473684 0.0812986 0 -0.980509 0 
271 0.0273648 0.454978 0.889108 0.0416429 0.928592 0.476303 0.106064 0 -0.980509 0 
286 0.628098 -0.626475 0.451 -0.0980878 0.652484 0.477279 0.0961147 0 -0.980509 0 
242 0.405329 -0.386537 0.195018 0.80515 0.823799 0.479487 0.0176861 0 -0.980509 0 
251 0.0900006 0.973615 -0.198551 -0.0674572 0.931689 0.480328 0.0504576 0 -0.980509 0 
254 0.444662 0.417069 -0.103531 0.785882 0.689275 0.480866 0.0845264 0 -0.980509 0 
240 0.599891 0.700556 -0.381167 0.0637531 0.613827 0.483215 0.0670661 0 -0.980509 0 
250 0.162872 0.573791 -0.774091 0.21218 0.641483 0.481776 0.0850658 0 -0.980509 0 
292 -0.305976 0.0560735 0.776092 0.548558 0.865093 0.482587 0.0152647 0 -0.980509 0 
284 -0.194914 0.276649 -0.385417 0.858445 0.901551 0.483074 0.0909514 0 -0.980509 0 
274 0.909777 0.198207 0.359266 -0.0628259 0.577062 0.482502 0.0902644 0 -0.980509 0 
287 -0.393842 0.75409 0.136013 -0.507678 0.928901 0.484412 0.0920393 0 -0.980509 0 
255 0.402543 0.725395 0.439631 -0.344218 0.650643 0.484405 0.0763875 0 -0.980509 0 
281 0.822724 0.546931 0.144466 -0.0558588 0.654175 0.486419 0.0172982 0 -0.980509 0 
291 0.573987 0.687243 0.261742 0.360176 0.54365 0.489506 0.095189 0 -0.980509 0 
294 0.900547 0.0346517 -0.307673 -0.305209 0.588706 0.493643 0.0372477 0 -0.980509 0 
300 -0.115369 0.0820223 0.601646 0.78612 0.737173 0.49451 0.109087 0 -0.980509 0 
285 0.444708 0.655592 -0.514486 0.328235 0.584433 0.493826 0.104439 0 -0.980509 0 
252 -0.378954 0.571539 0.508277 0.520953 0.673468 0.495974 0.108767 0 -0.980509 0 
239 -0.103791 -0.0183016 0.837517 0.536151 0.634888 0.503053 0.0775764 0 -0.980509 0 
290 0.67684 -0.0859714 -0.719322 -0.130663 0.759644 0.523222 0.0666038 0 -0.980509 0 
298 0.883896 -0.220472 0.11148 -0.397104 0.618109 0.520618 0.0969489 0 -0.980509 0 
289 0.649425 -0.548807 0.466724 0.243364 0.560673 0.525484 0.0847719 0 -0.980509 0 
243 0.513063 -0.497405 0.666863 0.2113 0.712541 0.516813 0.0456908 0 -0.980509 0 
244 -0.349714 -0.325941 0.316199 0.81944 0.605367 0.518212 0.0626555 0 -0.980509 0 
245 0.833379 -0.523233 -0.0106329 -0.177748 0.716585 0.523301 0.094979 0 -0.980509 0 
246 0.936057 -0.204247 0.283262 0.0429285 0.547339 0.509766 0.103136 0 -0.980509 0 
247 -0.155837 0.419996 -0.382018 0.808319 0.79457 0.537057 0.0947777 0 -0.980509 0 
248 0.348019 0.760843 0.358542 -0.414064 0.624024 0.541466 0.0875884 0 -0.980509 0 
249 0.250163 0.45783 0.394759 0.75629 0.920369 0.536996 0.0596973 0 -0.980509 0 
275 0.330486 -0.207822 0.877364 -0.278964 0.81491 0.537915 0.109377 0 -0.980509 0 
296 0.616373 -0.128648 -0.472416 -0.616731 0.659973 0.550534 0.0993897 0 -0.980509 0 
282 -0.0771124 0.636709 -0.686067 0.343464 0.63185 0.528238 0.0672305 0 -0.980509 0 
253 0.454313 0.122461 0.822173 0.320368 0.880883 0.5007 0.044847 0 -0.980509 0 
279 0.712372 -0.0493219 -0.626771 -0.311851 0.525058 0.519998 0.0752695 0 -0.980509 0 
280 0.619263 0.000925894 0.696608 -0.362284 0.735627 0.550971 0.0396999 0 -0.980509 0 
256 0.194974 0.970613 0.119082 0.0756015 0.687601 0.537037 0.0593388 0 -0.980509 0 
257 0.0378392 0.916599 0.376053 -0.130379 0.526184 0.521796 0.0970691 0 -0.980509 0 
258 0.612119 -0.214384 0.385196 0.656486 0.674959 0.524374 0.0227419 0 -0.980509 0 
295 -0.0991281 0.766081 0.371699 -0.514911 0.61412 0.530272 0.0530635 0 -0.980509 0 
260 -0.464501 -0.197792 0.86255 -0.0335288 0.770906 0.54268 0.0926267 0 -0.980509 0 
261 0.725601 0.0471458 -0.113583 0.677037 0.827776 0.52495 0.10551 0 -0.980509 0 
262 -0.00420795 0.0633995 0.511576 0.856885 0.601451 0.510086 0.097718 0 -0.980509 0 
263 0.246574 0.899821 -0.297418 0.202646 0.799252 0.53804 0.0175119 0 -0.980509 0 
277 0.458291 0.480816 -0.318742 0.676157 0.885136 0.52275 0.0261167 0 -0.980509 0 
265 0.411326 0.677521 0.600277 -0.106978 0.904986 0.508445 0.102115 0 -0.980509 0 
266 -0.281826 -0.15961 0.922552 0.209754 0.722141 0.539158 0.0955834 0 -0.980509 0 
293 0.591938 0.351773 0.612452 0.388288 0.72695 0.537043 0.057717 0 -0.980509 0 
268 0.305376 0.761677 0.556759 -0.12889 0.863288 0.5273 0.103545 0 -0.980509 0 
299 0.650085 0.236628 -0.632803 0.347789 0.713419 0.547484 0.0457402 0 -0.980509 0 
270 0.653392 0.387196 0.630796 -0.158915 0.543869 0.544992 0.054043 0 -0.980509 0 
278 0.290932 -0.467436 0.384343 0.741042 0.68581 0.534987 0.093962 0 -0.980509 0 
272 -0.105825 0.632875 -0.490917 0.589296 0.583576 0.544905 0.095509 0 -0.980509 0 
273 0.138666 0.795448 0.347726 0.476571 0.58672 0.535051 0.0795037 0 -0.980509 0 
ITEM: TIMESTEP
2000
ITEM: NUMBER OF ENTRIES
300
ITEM: BOX BOUNDS mm ff mm
-7.11219 2
0 1
-0.011213 0.141213
ITEM: ENTRIES c_bid c_quat[1] c_quat[2] c_quat[3] c_quat[4] c_pos[1] c_pos[2] c_pos[3] c_vel[1] c_vel[2] c_vel[3] 
1 0.108621 -0.0513005 0.579597 -0.806001 0.921868 0.0748655 0.0772337 0 -1.96151 0 
2 0.523606 0.485545 0.263396 0.648618 0.784166 0.0419147 0.100867 -0.0483477 0.147867 -0.256394 
3 -0.174176 0.560809 0.11009 -0.801895 0.93515 0.133896 0.110469 0 -1.96151 0 
4 -0.00276459 0.556274 -0.119576 -0.822346 0.707576 0.143056 0.0975749 0 -1.96151 0 
5 0.512641 -0.152311 0.617341 0.576967 0.677523 0.0323197 0.0316434 0.468042 0.544089 0.189332 
6 -0.391973 0.789934 0.0690172 0.466474 0.912337 0.267541 0.0520656 0 -1.96151 0 
7 0.497091 -0.0310528 0.566693 0.65635 0.781332 0.0740293 0.0636556 0 -1.96151 0 
8 0.0834674 -0.256372 0.461872 0.844974 0.761293 0.0243287 0.0568174 0.490775 -0.537546 0.287314 
9 -0.124541 0.186033 0.00922283 -0.974575 0.722527 0.0381448 0.0863543 0.361042 -0.276479 -0.0342215 
10 0.38305 0.38206 0.731669 0.414685 0.686697 0.112125 0.0341783 0 -1.96151 0 
11 0.363741 0.411654 -0.574135 0.607126 0.639433 0.0228199 0.00682042 -0.611126 0.0782176 0.617811 
12 0.717996 -0.23397 0.180768 -0.630129 0.749486 0.187947 0.0175695 0 -1.96151 0 
13 0.404029 0.0376989 -0.485362 0.774444 0.863082 0.0365762 0.0673418 -0.410094 -0.0185908 0.115578 
14 0.764904 0.408904 -0.433973 -0.243694 0.667815 0.110196 0.0252622 0 -1.96151 0 
15 -0.472267 -0.722126 0.33356 0.379784 0.845806 0.0492754 0.075218 0.0581472 0.476134 0.308947 
16 -0.303041 -0.369073 0.803563 -0.355298 0.547642 0.0720391 0.101325 0 -1.96151 0 
17 0.328907 0.583351 -0.443036 0.59602 0.794905 0.0239571 0.0634107 0.143039 -0.354216 -0.523162 
18 -0.312919 0.193114 0.434613 0.822131 0.533908 0.150233 0.051321 0 -1.96151 0 
19 0.314002 -0.234436 0.698032 0.599328 0.707002 0.0223709 0.0599099 -0.16096 0.0425072 0.00742204 
20 0.454547 0.725279 0.507578 0.0986006 0.753929 0.0505994 0.017088 0 -1.96151 0 
21 -0.528772 -0.664719 -0.461547 -0.255977 0.959737 0.0214097 0.0843492 0.168718 0.57636 0.6697 
22 0.145023 0.693746 0.680893 -0.184581 0.883414 0.0701653 0.028348 0 -1.96151 0 
23 0.00502327 0.892812 -0.429668 -0.135078 0.680272 0.0173643 0.103217 -0.259307 0.0854167 0.167618 
24 0.749674 0.420191 0.266351 0.436446 0.651357 0.0476287 0.0795506 0.113829 1.179 0.501167 
25 0.573756 -0.200412 -0.27801 -0.743875 0.759768 0.134343 0.0876093 0 -1.96151 0 
26 0.425719 0.727556 0.537952 0.00573629 0.714969 0.0488781 0.106187 0.0110849 -1.6396 0.219603 
27 0.763346 -0.113635 0.128164 0.622867 0.943525 0.276834 0.0965179 0 -1.96151 0 
28 -0.0290763 0.343884 -0.937341 -0.0478488 0.825357 0.0144965 0.0606058 0.474188 0.147569 -0.132495 
29 -0.0170629 0.859862 0.252148 0.443585 0.713244 0.0157297 0.110176 -0.070273 0.157465 0.239704 
30 0.369717 0.286829 0.780735 0.414114 0.614963 0.0700326 0.0442906 -0.579969 0.331435 0.216068 
31 -0.445443 0.732554 0.123592 -0.49967 0.593284 0.0619054 0.0221382 0 -1.96151 0 
32 -0.138271 0.276944 -0.359491 0.880312 0.830465 0.241993 0.103623 0 -1.96151 0 
33 0.622892 0.777939 -0.0430722 -0.0704372 0.845029 0.0261655 0.071165 -0.462083 -0.162584 0.0920077 
34 0.618488 -0.367914 -0.372091 -0.586225 0.949763 0.204251 0.0238888 0 -1.96151 0 
35 -0.0961925 0.0572514 0.709974 -0.695275 0.925289 0.0339767 0.0688647 0.188116 -0.419543 -0.0564314 
36 -0.477344 -0.358007 0.775516 -0.206274 0.694368 0.0264614 0.0124298 -0.502055 -0.786988 -0.80579 
37 -0.499092 0.837285 -0.0711591 -0.211653 0.943275 0.0447959 0.0532759 0.0550819 -0.369943 -0.239467 
38 0.862266 0.275621 0.423235 0.0374581 0.707981 0.0350259 0.025944 -0.481942 -0.039914 0.33887 
39 0.148395 -0.490081 0.85594 0.0718846 0.793872 0.0290642 0.0173081 -0.0238205 0.266275 0.416378 
40 0.44325 0.707797 0.21011 0.508337 0.678333 0.144502 0.0728965 0 -1.96151 0 
41 0.563382 0.804514 0.165219 0.0897851 0.807125 0.129111 0.103221 0 -1.96151 0 
42 -0.432362 -0.227319 0.535285 -0.6891 0.686238 0.0264522 0.0504701 0.164356 1.54214 -0.365805 
43 -0.178211 0.774902 -0.197545 0.573361 0.908598 0.209284 0.0686066 0 -1.96151 0 
44 0.306778 0.656281 -0.675191 0.138921 0.80749 0.246321 0.0890878 0 -1.96151 0 
45 0.864543 -0.137626 -0.46943 -0.115154 0.9238 0.287822 0.0675698 0 -1.96151 0 
46 0.669368 -0.340609 -0.65519 0.081603 0.692918 0.183696 0.0558218 0 -1.96151 0 