ITEM: TIMESTEP
0
ITEM: NUMBER OF ENTRIES
0
ITEM: BOX BOUNDS mm ff mm
-8.11219 1
0 1
-0.076213 0.076213
ITEM: ENTRIES c_quat[1] c_quat[2] c_quat[3] c_quat[4] c_pos[1] c_pos[2] c_pos[3] 
ITEM: TIMESTEP
1000
ITEM: NUMBER OF ENTRIES
300
ITEM: BOX BOUNDS mm ff mm
-8.11219 1
0 1
-0.076213 0.076213
ITEM: ENTRIES c_quat[1] c_quat[2] c_quat[3] c_quat[4] c_pos[1] c_pos[2] c_pos[3] 
0.108621 -0.0513005 0.579597 -0.806001 -0.0781321 0.221966 0.0122337 
0.205191 0.545005 0.125751 0.803152 -0.215652 0.176539 0.0373979 
-0.174176 0.560809 0.11009 -0.801895 -0.0648499 0.280997 0.0454688 
-0.00276459 0.556274 -0.119576 -0.822346 -0.292424 0.290157 0.0325749 
0.497549 -0.303195 0.660756 0.473201 -0.326997 0.157077 -0.0350008 
-0.391973 0.789934 0.0690172 0.466474 -0.0876628 0.414642 -0.0129344 
0.497091 -0.0310528 0.566693 0.65635 -0.218668 0.22113 -0.00134436 
0.709481 0.197565 -0.531861 0.418006 -0.242083 0.140733 -0.0114779 
-0.0307574 0.299993 0.777764 -0.55149 -0.307073 0.0567201 -0.0115792 
0.38305 0.38206 0.731669 0.414685 -0.313303 0.259226 -0.0308217 
-0.325582 0.308597 0.782629 -0.431574 -0.35353 0.135107 -0.0484499 
0.717996 -0.23397 0.180768 -0.630129 -0.250514 0.335048 -0.0474305 
0.81035 -0.0830451 -0.522256 -0.252358 -0.113907 0.0954669 -0.00700991 
0.764904 0.408904 -0.433973 -0.243694 -0.332185 0.257296 -0.0397378 
0.164775 0.182363 0.877079 -0.412705 -0.148063 0.0952017 -0.021571 
-0.303041 -0.369073 0.803563 -0.355298 -0.452358 0.21914 0.0363249 
0.818112 0.193193 -0.541055 -0.0250741 -0.212765 0.108465 0.00758929 
-0.312919 0.193114 0.434613 0.822131 -0.466092 0.297334 -0.013679 
0.400191 -0.296924 0.84598 0.189738 -0.274502 0.0886147 0.00168408 
0.454547 0.725279 0.507578 0.0986006 -0.246071 0.1977 -0.047912 
0.544205 -0.176073 0.346605 0.743441 -0.0807263 0.0630287 -0.00455557 
0.145023 0.693746 0.680893 -0.184581 -0.116586 0.217266 -0.036652 
0.314747 0.607601 -0.689679 0.236851 -0.307276 0.0964259 0.0224002 
0.783068 0.0908812 0.282639 0.546498 -0.349409 0.169036 0.0100081 
0.573756 -0.200412 -0.27801 -0.743875 -0.240232 0.281444 0.0226093 
0.426689 0.724934 0.540747 -0.000230527 -0.285036 0.195913 0.0411465 
0.763346 -0.113635 0.128164 0.622867 -0.0564746 0.423934 0.0315179 
0.278581 0.923793 0.204684 0.164632 -0.17201 0.0954676 -0.00429025 
-0.219905 0.641386 0.16965 0.715182 -0.291845 0.148694 0.0411831 
0.659124 0.593607 -0.40212 0.226906 -0.354786 0.0972222 -0.0319529 
-0.445443 0.732554 0.123592 -0.49967 -0.406716 0.209006 -0.0428618 
-0.138271 0.276944 -0.359491 0.880312 -0.169535 0.389094 0.0386227 
0.663035 -0.507851 -0.526886 -0.157681 -0.127057 0.103205 0.00560554 
0.618488 -0.367914 -0.372091 -0.586225 -0.0502366 0.351352 -0.0411112 
-0.098445 -0.0012313 0.731641 -0.674543 -0.074988 0.178697 0.00392659 
-0.136553 -0.295288 0.817691 0.47491 -0.289876 0.127018 -0.0354883 
0.608031 0.351713 -0.34999 0.619761 -0.0586676 0.137879 -0.00366547 
0.18555 0.843155 -0.433913 -0.257644 -0.28862 0.168832 -0.0439928 
0.220702 0.00520236 0.944839 0.241954 -0.210054 0.106287 -0.0459459 
0.44325 0.707797 0.21011 0.508337 -0.321667 0.291603 0.00789652 
0.563382 0.804514 0.165219 0.0897851 -0.192875 0.276212 0.0382215 
-0.41709 -0.247918 0.551939 -0.678186 -0.314307 0.161652 -0.0133135 
-0.178211 0.774902 -0.197545 0.573361 -0.0914019 0.356385 0.00360664 
0.306778 0.656281 -0.675191 0.138921 -0.19251 0.393422 0.0240878 
0.864543 -0.137626 -0.46943 -0.115154 -0.0761996 0.434923 0.00256978 
0.669368 -0.340609 -0.65519 0.081603 -0.307082 0.330797 -0.0091782 
-0.296808 0.669139 0.621748 0.278545 -0.0847495 0.362064 -0.0337575 
0.713416 0.277247 -0.204488 0.61021 -0.258524 0.300229 -0.046187 
-0.331432 -0.199485 0.905429 0.174804 -0.115692 0.195434 0.0301327 
0.735737 0.342848 0.364731 -0.4562 -0.0917322 0.393066 0.0289797 
0.954612 0.141829 0.196232 0.173473 -0.428355 0.290747 0.0122128 
0.694912 0.381959 0.14198 -0.592492 -0.433368 0.320907 0.0366766 
0.443391 0.552889 -0.535954 0.458771 -0.160118 0.421663 -0.0107257 
-0.362474 0.783171 0.0716006 0.500129 -0.120271 0.202798 -0.029492 
0.449358 -0.311647 0.396797 0.737229 -0.141405 0.19058 0.0362893 
0.0829906 0.804093 -0.188658 0.557633 -0.207034 0.112661 0.0363154 
-0.191891 0.311355 0.540057 -0.758007 -0.464936 0.361527 0.00990574 
-0.481109 0.677763 0.550629 0.0773162 -0.326338 0.0641898 -0.0258654 
0.344034 0.00963373 0.906915 -0.243007 -0.351442 0.379642 0.0238896 
-0.228875 0.243699 -0.333529 0.881468 -0.213164 0.282253 0.022518 
0.121974 0.507105 0.614823 0.591573 -0.437834 0.0871629 0.00137126 
-0.467073 0.182916 0.486398 0.715403 -0.0639927 0.0829065 0.0172644 
0.0412838 0.221785 -0.0611416 0.972301 -0.423155 0.394123 -0.027045 
0.249354 -0.497902 -0.180356 0.810794 -0.462352 0.364879 -0.0029583 
-0.0746641 0.520765 0.830953 -0.180958 -0.351835 0.2423 0.0482912 
-0.466634 0.506457 -0.465492 0.555942 -0.131635 0.136061 -0.0427982 
-0.368864 0.568887 0.709377 -0.192591 -0.307571 0.282481 -0.0218902 
0.688833 0.130136 0.636648 0.32133 -0.298538 0.304102 0.023829 
0.346785 -0.399952 0.512856 -0.675838 -0.292233 0.0736724 0.0178596 
0.641639 -0.520027 -0.551383 0.117674 -0.265304 0.291009 0.0121973 
0.100113 0.469956 0.515901 -0.7092 -0.435028 0.362462 0.0395164 
-0.371372 -0.203041 -0.0311333 0.905476 -0.474338 0.166381 -0.0450068 
0.685644 0.202493 0.550404 -0.431213 -0.391931 0.158459 -0.0307627 
0.889822 0.0689707 -0.159068 -0.422087 -0.386445 0.323113 0.0039384 
0.483637 0.667806 -0.56488 -0.0322669 -0.296342 0.235626 0.00449586 
0.608297 -0.399618 -0.00092659 -0.685769 -0.428593 0.174114 0.0486978 
0.309348 0.862299 -0.3055 -0.25964 -0.421581 0.194359 0.0111002 
0.0563398 0.640811 -0.354918 0.678395 -0.431188 0.392048 -0.0482094 
-0.291345 0.437748 -0.365186 0.768201 -0.0697269 0.432216 0.0286153 
0.147658 -0.150872 0.546527 0.810397 -0.101916 0.381227 -0.0165307 
-0.391586 0.175218 0.268455 0.862491 -0.402705 0.106648 -0.0252863 
0.892275 0.348372 0.287015 -0.01025 -0.207858 0.436802 -0.000795822 
0.201731 0.973484 -0.0526874 0.0941114 -0.15914 0.117908 -0.0163703 
0.106994 0.116753 0.942531 0.294205 -0.42157 0.369676 0.0490214 
0.524625 0.297689 0.10226 -0.791007 -0.255209 0.121923 -0.0451264 
0.957601 0.17346 -0.140399 -0.182208 -0.434215 0.269255 0.00680274 
-0.0269838 0.857736 -0.510026 0.0586042 -0.120268 0.24985 -0.0281964 
0.0888155 0.918211 -0.109808 0.370057 -0.249768 0.395174 -0.0145529 
0.536517 0.671064 -0.158541 -0.486505 -0.225709 0.144893 -0.0300151 
-0.48244 0.826941 -0.111671 0.266365 -0.110195 0.135217 0.0135282 
0.766356 -0.474832 -0.424526 0.0837287 -0.400267 0.227851 0.0360167 
0.022463 -0.368989 -0.0651798 0.926873 -0.340556 0.177146 -0.013599 
0.32579 0.228739 0.913435 0.0847059 -0.08773 0.16471 0.0332655 
0.62186 -0.412696 -0.0881384 -0.6597 -0.295971 0.438252 -0.00878286 
0.364308 0.641151 -0.612495 -0.284701 -0.323262 0.154925 0.0199883 
0.0812762 0.976381 0.0744001 0.185849 -0.0643819 0.398956 -0.0206362 
0.284282 0.505828 -0.799539 0.155111 -0.406655 0.359131 0.0421622 
0.633939 0.453582 -0.462754 -0.422188 -0.182052 0.298569 -0.0224451 
0.170611 -0.48192 0.701046 0.497172 -0.414293 0.138431 0.017649 
0.38624 0.907886 0.128954 0.0996596 -0.152837 0.261201 -0.0351591 
0.663325 0.370546 -0.58076 -0.292255 -0.346274 0.373869 -0.0328009 
0.414549 0.335916 0.55323 0.639724 -0.196567 0.166703 0.00981049 
-0.496429 0.363256 0.534639 0.579452 -0.313835 0.336853 0.0374272 
-0.0516071 0.370449 0.630782 -0.679867 -0.101007 0.192423 -0.0219125 
0.64335 -0.656171 0.242839 -0.310757 -0.190014 0.219236 0.0407783 
0.992714 -0.117551 -0.0216686 0.0152229 -0.430874 0.102553 -0.0332981 
-0.30326 0.699958 -0.105284 0.637971 -0.444054 0.0514089 -0.0278888 
0.762499 -0.143285 0.55116 -0.307062 -0.384162 0.422414 0.0415684 
0.156394 -0.0874427 0.0833584 0.980279 -0.0938029 0.418103 0.028534 
0.438667 -0.21389 0.761361 -0.426793 -0.390759 0.088686 0.000945661 
0.01849 0.778592 0.187686 -0.59852 -0.291961 0.333972 0.0323724 
0.360562 0.748674 0.0195021 0.55597 -0.336502 0.358161 -0.0313386 
-0.221917 -0.0639008 0.905598 0.355755 -0.299346 0.0742576 -0.0235742 
-0.00244538 0.884672 0.0511109 -0.463397 -0.311411 0.2383 0.0429187 
-0.281009 0.920096 0.26914 -0.0449463 -0.114915 0.3475 -0.0258792 
-0.155633 0.471178 0.0964702 0.862823 -0.0609712 0.122104 0.0168967 
0.0380279 -0.418218 -0.209143 0.883123 -0.257375 0.257978 0.0226104 
0.126423 -0.289603 0.0145552 0.948649 -0.207159 0.162295 -0.0125775 
0.857356 0.102655 -0.208233 0.459392 -0.218712 0.330591 0.024971 
0.630311 0.546477 -0.485181 0.262051 -0.318441 0.338833 -0.0444775 
-0.494922 0.120005 0.633474 -0.582548 -0.408674 0.397324 0.0226097 
-0.405684 0.716745 -0.484453 -0.294962 -0.261916 0.0617546 0.0420028 
0.848321 0.208714 0.480392 -0.0775388 -0.0881199 0.0683029 -0.0435211 
0.627733 0.637905 0.405245 -0.18656 -0.0875092 0.41571 -0.0276594 
-0.168378 0.291416 0.591999 -0.732299 -0.145561 0.412403 -0.0197693 
0.961219 -0.131474 -0.135882 -0.200769 -0.105889 0.25263 -0.0454236 
0.164784 0.16006 0.511678 -0.827896 -0.351446 0.316821 -0.0329899 
-0.0512306 0.154073 0.872247 0.461327 -0.0979239 0.389374 0.0185027 
0.610953 -0.611127 0.182383 0.469038 -0.375051 0.0694374 0.0235439 
-0.138628 -0.310812 0.114455 0.933316 -0.253612 0.289969 0.0436455 
0.57974 0.280657 -0.0107529 -0.764864 -0.47834 0.401483 -0.00289923 
-0.253616 0.84454 -0.403825 -0.243632 -0.382643 0.167368 0.00157267 
0.00411076 -0.447604 0.569062 -0.689784 -0.128021 0.241554 0.0159732 
-0.169475 -0.126526 0.946865 0.242315 -0.428786 0.348853 -0.0422275 
0.267902 -0.181503 -0.0111629 0.946129 -0.337301 0.270084 -0.00986814 
0.848133 0.489017 0.20379 0.00150465 -0.066107 0.227375 0.0379196 
-0.218108 0.320283 0.76507 -0.51431 -0.202647 0.31043 0.0150534 
0.461074 -0.137559 0.842481 -0.242307 -0.256992 0.25339 0.0453386 
0.315375 0.901598 -0.263219 0.135558 -0.236439 0.380075 0.0459145 
0.880096 0.133476 -0.425473 0.163058 -0.328607 0.190567 -0.0207345 
0.840227 0.0358905 -0.480194 0.249287 -0.445021 0.127417 0.0381275 
0.525385 0.177015 0.428424 -0.713505 -0.224057 0.37802 0.00822547 
-0.0323632 -0.275214 0.561684 0.779564 -0.0697353 0.301128 0.0272813 
-0.392929 0.860027 -0.268033 -0.184711 -0.195338 0.174977 -0.0260607 
0.368058 0.699092 -0.312725 -0.527264 -0.272402 0.128145 -0.00340171 
-0.429335 -0.263496 0.828704 0.243909 -0.146668 0.304673 0.0226049 
-0.152444 -0.276024 -0.110184 0.942566 -0.17684 0.180747 0.016374 
0.173947 0.922519 -0.272991 0.210182 -0.272148 0.103317 -0.0219095 
-0.462421 0.459992 0.637808 -0.409603 -0.407365 0.0631392 -0.0403118 
-0.230875 -0.490567 -0.23665 0.806249 -0.351524 0.301032 0.0260084 
-0.33655 0.0900708 0.748463 -0.564292 -0.162314 0.0929007 0.0102404 
-0.233332 0.672551 0.114544 0.692901 -0.223037 0.314123 0.0297402 
0.910451 -0.0324756 0.00492705 0.412311 -0.0773381 0.235111 0.0419135 
0.908083 -0.15536 -0.383203 0.0663634 -0.0915575 0.323598 0.0442447 
0.567914 -0.567545 0.207185 0.558964 -0.176661 0.184894 0.0427478 
-0.45199 0.775791 0.43399 -0.0742041 -0.425018 0.0606048 0.0107843 
0.106188 0.94086 -0.290438 -0.138392 -0.383914 0.305245 0.0260469 
0.624901 -0.504888 -0.050305 0.593343 -0.393281 0.255393 -0.0379029 
0.638062 0.626477 -0.424985 -0.140684 -0.410264 0.338954 -0.0366753 
-0.347817 -0.0862691 0.848066 -0.39034 -0.270743 0.069015 0.0484443 
0.21137 -0.0688429 0.158309 0.96204 -0.248807 0.215219 -0.038641 
-0.43942 -0.0388164 0.89002 0.115188 -0.437035 0.181695 0.0029927 
0.829437 -0.337853 -0.443907 -0.0289281 -0.272217 0.224418 0.012375 
0.235992 -0.415147 0.556842 -0.679623 -0.319567 0.324393 -0.0172751 
0.26441 -0.266383 0.906562 0.193064 -0.160646 0.164547 0.0480426 
-0.234963 0.403153 0.778527 0.419709 -0.472783 0.0849136 -0.0496482 
0.946399 -0.0835459 -0.198118 0.241035 -0.423082 0.332779 0.0180004 
0.10355 0.972475 0.079147 0.193146 -0.122562 0.389113 0.0201077 
0.758982 -0.569471 0.124358 0.290144 -0.476067 0.344695 -0.0126809 
0.956384 -0.0203121 -0.133123 0.259221 -0.387091 0.231614 0.0481651 
0.536599 -0.843753 -0.00810847 0.0088202 -0.22135 0.2983 0.0487428 
0.747348 -0.416252 -0.489803 -0.168222 -0.285748 0.263334 0.0304595 
0.854779 0.0845824 0.497259 0.122197 -0.122489 0.328761 0.0349011 
0.276089 0.451354 0.808788 -0.256741 -0.339715 0.125765 -0.000893454 
0.553571 0.270105 0.630497 0.472309 -0.331913 0.112913 -0.00327806 
0.688668 0.331438 -0.328132 0.55517 -0.240381 0.355576 0.00425524 
0.902633 0.361188 0.155245 -0.175206 -0.188103 0.0985673 0.0197524 
0.879352 0.18606 -0.339469 -0.277277 -0.356664 0.335527 -0.0336001 
0.183791 0.332585 0.554391 -0.740445 -0.334715 0.295757 -0.0362892 
0.12958 0.958491 -0.118791 0.224484 -0.321246 0.0756614 -0.0248835 
0.884226 -0.191005 0.262265 0.335974 -0.33587 0.238095 -0.0210913 
-0.147198 0.388567 0.48533 0.769287 -0.186548 0.397756 0.0379118 
0.598429 -0.302022 -0.299241 0.679058 -0.338488 0.110181 0.018287 
0.719928 0.435604 0.220707 0.493195 -0.478821 0.0862842 0.00937156 
0.610187 0.554494 -0.134761 0.549588 -0.231142 0.397769 -0.00799394 
-0.38835 0.0837497 0.538623 0.743004 -0.132277 0.0947004 -0.0276501 
0.465709 0.751864 -0.139731 -0.445298 -0.329397 0.241361 0.00236422 
0.535034 -0.765228 0.357946 0.00627723 -0.112552 0.0899668 -0.0174519 
-0.497375 0.831192 0.248469 -0.00126526 -0.323569 0.159217 -0.0458538 
0.9298 0.138021 0.308916 0.144892 -0.113052 0.274655 -0.00534089 
0.764339 0.155665 -0.606428 -0.154269 -0.111789 0.4082 0.0181814 
0.631489 -0.227209 0.693746 0.261369 -0.371901 0.123074 -0.00953997 
-0.406876 0.392563 0.528312 -0.633429 -0.0930644 0.364803 -0.0263024 
0.873223 -0.299622 0.322743 0.208676 -0.211544 0.403679 0.0229963 
0.58089 0.651277 -0.0531938 0.485361 -0.273678 0.173608 0.0215219 
0.788702 -0.080015 -0.33117 -0.511736 -0.448645 0.268019 0.013282 
0.914141 0.150588 0.324053 -0.191464 -0.132446 0.248533 0.0382702 
-0.161175 0.234303 -0.17964 0.941729 -0.233725 0.412176 0.0262573 
-0.424035 -0.482059 0.765773 0.0374775 -0.236523 0.272414 -0.019034 
-0.221925 0.778325 0.574236 -0.123337 -0.285235 0.291925 -0.0410084 
-0.224331 -0.199804 0.586992 0.751794 -0.402744 0.299591 -0.0271513 
0.269373 0.575711 -0.64991 -0.416668 -0.40155 0.16413 -0.00340338 
0.536622 0.484729 0.454713 0.519914 -0.267352 0.274024 0.046359 
0.253756 0.575306 0.432382 0.646279 -0.30095 0.196273 -0.0467505 
0.200223 0.219278 0.454886 0.839587 -0.416799 0.155939 -0.0193637 
0.629595 -0.699368 -0.250232 -0.227767 -0.458283 0.38485 0.00723901 
0.507865 0.377159 -0.770416 -0.079263 -0.411126 0.0576757 0.00377479 
-0.226021 0.95058 0.0342246 0.210096 -0.0805575 0.302331 -0.0167128 
0.534019 0.0183919 0.135766 -0.834298 -0.23052 0.118555 0.00359976 
-0.34264 0.773459 0.413642 0.336539 -0.431598 0.387044 0.0281037 
0.760972 -0.52858 0.373594 -0.0441941 -0.0978687 0.0515116 0.00341924 
0.872955 -0.0662813 0.475172 0.0881304 -0.139611 0.230802 0.0385157 
-0.19754 0.835735 -0.438738 -0.264639 -0.119855 0.301514 -0.0474362 
0.583653 -0.264715 0.673426 -0.368475 -0.41073 0.250109 -0.0404273 
-0.265623 0.121509 0.816812 -0.497491 -0.100828 0.178532 0.0123878 
0.690191 -0.276037 -0.292135 0.601745 -0.255967 0.2797 -0.00701008 
0.244862 0.639358 0.471772 0.555604 -0.344078 0.315479 0.0293414 
0.55279 0.200083 0.808849 -0.0123921 -0.0919763 0.175435 -0.00174743 
0.954103 0.0690391 0.266555 -0.117766 -0.132298 0.175976 -0.0270249 
-0.129251 -0.43752 -0.423542 0.782613 -0.300784 0.389928 0.0458434 
-0.254258 0.903581 -0.225071 0.261223 -0.307651 0.226198 -0.00702078 
0.532922 -0.841942 0.0842828 0.00480756 -0.25751 0.151845 -0.0188549 
0.777217 -0.335354 0.383838 0.368972 -0.242162 0.109513 0.0125446 
-0.442325 0.359846 0.337491 0.748972 -0.104275 0.285646 -0.0208128 
-0.490101 0.543831 0.0205414 0.680901 -0.268716 0.150746 -0.0370444 
0.0157669 -0.348456 -0.291008 0.890867 -0.381149 0.325887 -0.0408799 
-0.0660036 0.952623 -0.198765 0.220559 -0.128257 0.156092 0.0246338 
0.164164 0.826875 0.426308 0.328008 -0.175257 0.13405 0.00853441 
-0.0833404 0.823277 0.554933 -0.0855435 -0.121208 0.351659 0.0490454 
0.0105156 0.87609 -0.201426 0.43793 -0.236766 0.0698568 -0.0143162 
0.830683 0.115554 0.285016 -0.464088 -0.129499 0.323205 -0.00997115 
0.139516 0.460478 0.530597 -0.697826 -0.201034 0.322644 0.0328039 
0.469312 0.841817 -0.230837 0.133432 -0.113162 0.152434 -0.0462951 
0.649192 0.268902 -0.249049 0.666495 -0.188467 0.39553 -0.0189572 
0.0540641 0.779165 0.0722426 -0.620291 -0.325895 0.185915 0.0342451 
0.703792 0.46167 -0.0311668 -0.539042 -0.450894 0.309736 -0.00144706 
-0.135972 0.692098 -0.511068 0.491245 -0.139282 0.179016 0.0461599 
0.29948 0.66645 -0.682257 -0.0260967 -0.226152 0.409434 0.00424675 
-0.40593 -0.366395 0.696953 0.46393 -0.161136 0.465384 0.0164961 
0.348142 0.151077 -0.228693 0.896478 -0.125445 0.467257 0.00149673 
0.116146 0.943748 0.233145 -0.203698 -0.0893191 0.468279 -0.0230851 
-0.3536 0.220944 0.5435 -0.728532 -0.0535263 0.468004 -0.0409318 
0.396775 -0.486182 0.777527 0.0406025 -0.231851 0.467864 0.00601942 
-0.0154439 -0.213473 0.953551 -0.211968 -0.400018 0.469892 -0.0109235 
0.322 0.768487 -0.426132 0.352358 -0.0807215 0.472618 0.00545841 
-0.14537 -0.229954 0.925065 0.265036 -0.314769 0.472695 -0.0103862 
0.682967 0.112306 -0.684923 0.227646 -0.199843 0.473684 0.0162986 
0.0273648 0.454978 0.889108 0.0416429 -0.0714078 0.476303 0.0410641 
0.628098 -0.626475 0.451 -0.0980878 -0.347516 0.477279 0.0311147 
0.405329 -0.386537 0.195018 0.80515 -0.176201 0.479487 -0.0473139 
0.0900006 0.973615 -0.198551 -0.0674572 -0.0683111 0.480328 -0.0145424 
0.444662 0.417069 -0.103531 0.785882 -0.310725 0.480866 0.0195264 
0.599891 0.700556 -0.381167 0.0637531 -0.386173 0.483215 0.00206605 
0.162872 0.573791 -0.774091 0.21218 -0.358517 0.481776 0.0200658 
-0.305976 0.0560735 0.776092 0.548558 -0.134907 0.482587 -0.0497353 
-0.194914 0.276649 -0.385417 0.858445 -0.098449 0.483074 0.0259514 
0.909777 0.198207 0.359266 -0.0628259 -0.422938 0.482502 0.0252644 
-0.393842 0.75409 0.136013 -0.507678 -0.0710987 0.484412 0.0270393 
0.402543 0.725395 0.439631 -0.344218 -0.349357 0.484405 0.0113875 
0.822724 0.546931 0.144466 -0.0558588 -0.345825 0.486419 -0.0477018 
0.573987 0.687243 0.261742 0.360176 -0.45635 0.489506 0.030189 
0.900547 0.0346517 -0.307673 -0.305209 -0.411294 0.493643 -0.0277523 
-0.115369 0.0820223 0.601646 0.78612 -0.262827 0.49451 0.0440872 
0.444708 0.655592 -0.514486 0.328235 -0.415567 0.493826 0.0394386 
-0.378954 0.571539 0.508277 0.520953 -0.326532 0.495974 0.0437667 
-0.103791 -0.0183016 0.837517 0.536151 -0.365112 0.503053 0.0125764 
0.67684 -0.0859714 -0.719322 -0.130663 -0.240356 0.523222 0.00160383 
0.883896 -0.220472 0.11148 -0.397104 -0.381891 0.520618 0.0319489 
0.649425 -0.548807 0.466724 0.243364 -0.439327 0.525484 0.0197719 
0.513063 -0.497405 0.666863 0.2113 -0.287459 0.516813 -0.0193092 
-0.349714 -0.325941 0.316199 0.81944 -0.394633 0.518212 -0.00234452 
0.833379 -0.523233 -0.0106329 -0.177748 -0.283415 0.523301 0.029979 
0.936057 -0.204247 0.283262 0.0429285 -0.452661 0.509766 0.0381355 
-0.155837 0.419996 -0.382018 0.808319 -0.20543 0.537057 0.0297777 
0.348019 0.760843 0.358542 -0.414064 -0.375976 0.541466 0.0225884 
0.250163 0.45783 0.394759 0.75629 -0.0796305 0.536996 -0.00530266 
0.330486 -0.207822 0.877364 -0.278964 -0.18509 0.537915 0.0443768 
0.616373 -0.128648 -0.472416 -0.616731 -0.340027 0.550534 0.0343897 
-0.0771124 0.636709 -0.686067 0.343464 -0.36815 0.528238 0.00223052 
0.454313 0.122461 0.822173 0.320368 -0.119117 0.5007 -0.020153 
0.712372 -0.0493219 -0.626771 -0.311851 -0.474942 0.519998 0.0102695 
0.619263 0.000925894 0.696608 -0.362284 -0.264373 0.550971 -0.0253001 
0.194974 0.970613 0.119082 0.0756015 -0.312399 0.537037 -0.00566125 
0.0378392 0.916599 0.376053 -0.130379 -0.473816 0.521796 0.0320691 
0.612119 -0.214384 0.385196 0.656486 -0.325041 0.524374 -0.0422581 
-0.0991281 0.766081 0.371699 -0.514911 -0.38588 0.530272 -0.0119365 
-0.464501 -0.197792 0.86255 -0.0335288 -0.229094 0.54268 0.0276267 
0.725601 0.0471458 -0.113583 0.677037 -0.172224 0.52495 0.0405103 
-0.00420795 0.0633995 0.511576 0.856885 -0.398549 0.510086 0.032718 
0.246574 0.899821 -0.297418 0.202646 -0.200748 0.53804 -0.0474881 
0.458291 0.480816 -0.318742 0.676157 -0.114864 0.52275 -0.0388833 
0.411326 0.677521 0.600277 -0.106978 -0.0950142 0.508445 0.0371153 
-0.281826 -0.15961 0.922552 0.209754 -0.277859 0.539158 0.0305834 
0.591938 0.351773 0.612452 0.388288 -0.27305 0.537043 -0.007283 
0.305376 0.761677 0.556759 -0.12889 -0.136712 0.5273 0.0385454 
0.650085 0.236628 -0.632803 0.347789 -0.286581 0.547484 -0.0192598 
0.653392 0.387196 0.630796 -0.158915 -0.456131 0.544992 -0.010957 
0.290932 -0.467436 0.384343 0.741042 -0.31419 0.534987 0.028962 
-0.105825 0.632875 -0.490917 0.589296 -0.416424 0.544905 0.030509 
0.138666 0.795448 0.347726 0.476571 -0.41328 0.535051 0.0145037 
ITEM: TIMESTEP
2000
ITEM: NUMBER OF ENTRIES
300
ITEM: BOX BOUNDS mm ff mm
-8.11219 1
0 1
-0.076213 0.076213
ITEM: ENTRIES c_quat[1] c_quat[2] c_quat[3] c_quat[4] c_pos[1] c_pos[2] c_pos[3] 
0.108621 -0.0513005 0.579597 -0.806001 -0.0781321 0.0748655 0.0122337 
0.523606 0.485545 0.263396 0.648618 -0.215834 0.0419147 0.0358672 
-0.174176 0.560809 0.11009 -0.801895 -0.0648499 0.133896 0.0454688 
-0.00276459 0.556274 -0.119576 -0.822346 -0.292424 0.143056 0.0325749 
0.512641 -0.152311 0.617341 0.576967 -0.322477 0.0323197 -0.0333566 
-0.391973 0.789934 0.0690172 0.466474 -0.0876628 0.267541 -0.0129344 
0.497091 -0.0310528 0.566693 0.65635 -0.218668 0.0740293 -0.00134436 
0.0834674 -0.256372 0.461872 0.844974 -0.238707 0.0243287 -0.00818261 
-0.124541 0.186033 0.00922283 -0.974575 -0.277473 0.0381448 0.0213543 
0.38305 0.38206 0.731669 0.414685 -0.313303 0.112125 -0.0308217 
0.363741 0.411654 -0.574135 0.607126 -0.360567 0.0228199 -0.0581796 
0.717996 -0.23397 0.180768 -0.630129 -0.250514 0.187947 -0.0474305 
0.404029 0.0376989 -0.485362 0.774444 -0.136918 0.0365762 0.00234182 
0.764904 0.408904 -0.433973 -0.243694 -0.332185 0.110196 -0.0397378 
-0.472267 -0.722126 0.33356 0.379784 -0.154194 0.0492754 0.010218 
-0.303041 -0.369073 0.803563 -0.355298 -0.452358 0.0720391 0.0363249 
0.328907 0.583351 -0.443036 0.59602 -0.205095 0.0239571 -0.00158932 
-0.312919 0.193114 0.434613 0.822131 -0.466092 0.150233 -0.013679 
0.314002 -0.234436 0.698032 0.599328 -0.292998 0.0223709 -0.00509008 
0.454547 0.725279 0.507578 0.0986006 -0.246071 0.0505994 -0.047912 
-0.528772 -0.664719 -0.461547 -0.255977 -0.040263 0.0214097 0.0193492 
0.145023 0.693746 0.680893 -0.184581 -0.116586 0.0701653 -0.036652 
0.00502327 0.892812 -0.429668 -0.135078 -0.319728 0.0173643 0.0382172 
0.749674 0.420191 0.266351 0.436446 -0.348643 0.0476287 0.0145506 
0.573756 -0.200412 -0.27801 -0.743875 -0.240232 0.134343 0.0226093 
0.425719 0.727556 0.537952 0.00573629 -0.285031 0.0488781 0.0411866 
0.763346 -0.113635 0.128164 0.622867 -0.0564746 0.276834 0.0315179 
-0.0290763 0.343884 -0.937341 -0.0478488 -0.174643 0.0144965 -0.00439419 
-0.0170629 0.859862 0.252148 0.443585 -0.286756 0.0157297 0.0451764 
0.369717 0.286829 0.780735 0.414114 -0.385037 0.0700326 -0.0207094 
-0.445443 0.732554 0.123592 -0.49967 -0.406716 0.0619054 -0.0428618 
-0.138271 0.276944 -0.359491 0.880312 -0.169535 0.241993 0.0386227 
0.622892 0.777939 -0.0430722 -0.0704372 -0.154971 0.0261655 0.006165 
0.618488 -0.367914 -0.372091 -0.586225 -0.0502366 0.204251 -0.0411112 
-0.0961925 0.0572514 0.709974 -0.695275 -0.0747109 0.0339767 0.00386475 
-0.477344 -0.358007 0.775516 -0.206274 -0.305632 0.0264614 -0.0525702 
-0.499092 0.837285 -0.0711591 -0.211653 -0.0567247 0.0447959 -0.0117241 
0.862266 0.275621 0.423235 0.0374581 -0.292019 0.0350259 -0.039056 
0.148395 -0.490081 0.85594 0.0718846 -0.206128 0.0290642 -0.0476919 
0.44325 0.707797 0.21011 0.508337 -0.321667 0.144502 0.00789652 
0.563382 0.804514 0.165219 0.0897851 -0.192875 0.129111 0.0382215 
-0.432362 -0.227319 0.535285 -0.6891 -0.313762 0.0264522 -0.0145299 
-0.178211 0.774902 -0.197545 0.573361 -0.0914019 0.209284 0.00360664 
0.306778 0.656281 -0.675191 0.138921 -0.19251 0.246321 0.0240878 
0.864543 -0.137626 -0.46943 -0.115154 -0.0761996 0.287822 0.00256978 
0.669368 -0.340609 -0.65519 0.081603 -0.307082 0.183696 -0.0091782 
-0.296808 0.669139 0.621748 0.278545 -0.0847495 0.214963 -0.0337575 
0.713416 0.277247 -0.204488 0.61021 -0.258524 0.153128 -0.046187 
-0.331432 -0.199485 0.905429 0.174804 -0.115692 0.0483332 0.0301327 
0.735737 0.342848 0.364731 -0.4562 -0.0917322 0.245965 0.0289797 
0.954612 0.141829 0.196232 0.173473 -0.428355 0.143646 0.0122128 
0.694912 0.381959 0.14198 -0.592492 -0.433368 0.173806 0.0366766 
0.443391 0.552889 -0.535954 0.458771 -0.160118 0.274563 -0.0107257 
-0.362474 0.783171 0.0716006 0.500129 -0.120271 0.0556969 -0.029492 
0.447603 -0.310745 0.396745 0.738703 -0.141414 0.0435154 0.0362993 
0.456183 0.722725 -0.263772 0.447201 -0.216379 0.0240792 0.0405639 
-0.191891 0.311355 0.540057 -0.758007 -0.464936 0.214426 0.00990574 
0.0297659 -0.984465 -0.171181 -0.0252809 -0.32888 0.0141313 -0.0465073 
0.344034 0.00963373 0.906915 -0.243007 -0.351442 0.232541 0.0238896 
-0.228875 0.243699 -0.333529 0.881468 -0.213164 0.135152 0.022518 
0.413194 -0.263997 0.314637 -0.812761 -0.472611 0.016078 0.01479 
-0.247518 0.883227 0.339318 -0.208587 -0.0747093 0.0472221 0.0515714 
0.0412838 0.221785 -0.0611416 0.972301 -0.423155 0.247023 -0.027045 
0.249354 -0.497902 -0.180356 0.810794 -0.462352 0.217779 -0.0029583 
-0.0746641 0.520765 0.830953 -0.180958 -0.351835 0.0951989 0.0482912 
0.0118348 0.67603 0.111946 0.728225 -0.137544 0.025413 -0.0490451 
-0.368864 0.568887 0.709377 -0.192591 -0.307571 0.13538 -0.0218902 
0.688833 0.130136 0.636648 0.32133 -0.298538 0.157001 0.023829 
-0.00814029 -0.655566 -0.100907 -0.748321 -0.311817 0.0237385 0.0113053 
0.641639 -0.520027 -0.551383 0.117674 -0.265304 0.143908 0.0121973 
0.100113 0.469956 0.515901 -0.7092 -0.435028 0.215361 0.0395164 
-0.371372 -0.203041 -0.0311333 0.905476 -0.474338 0.0192798 -0.0450068 
0.712007 0.0857999 0.57719 -0.390559 -0.395487 0.0235491 -0.0313532 
0.889822 0.0689707 -0.159068 -0.422087 -0.386445 0.176012 0.0039384 
0.483637 0.667806 -0.56488 -0.0322669 -0.296342 0.0885246 0.00449586 
0.522667 0.0429777 0.510355 -0.681549 -0.426738 0.0389886 0.0525406 
0.284729 0.823401 -0.426305 -0.243321 -0.421688 0.0478113 0.0108222 
0.0563398 0.640811 -0.354918 0.678395 -0.431188 0.244947 -0.0482094 
-0.291345 0.437748 -0.365186 0.768201 -0.0697269 0.285115 0.0286153 
0.147658 -0.150872 0.546527 0.810397 -0.101916 0.234126 -0.0165307 
0.140555 0.828029 -0.0557481 0.539911 -0.401261 0.0198737 -0.00448843 
0.892275 0.348372 0.287015 -0.01025 -0.207858 0.289701 -0.000795822 
0.459333 0.870896 -0.109064 0.136597 -0.159485 0.0291927 -0.00540868 
0.106994 0.116753 0.942531 0.294205 -0.42157 0.222575 0.0490214 
0.737992 0.122434 -0.244619 -0.616879 -0.253676 0.0279885 -0.0511217 
0.957601 0.17346 -0.140399 -0.182208 -0.434215 0.122154 0.00680274 
-0.0269838 0.857736 -0.510026 0.0586042 -0.120268 0.102749 -0.0281964 
0.0888155 0.918211 -0.109808 0.370057 -0.249768 0.248073 -0.0145529 
0.263866 0.424126 -0.564938 -0.656762 -0.216901 0.019953 -0.0308274 
-0.243316 0.535473 0.570467 -0.573266 -0.130375 0.0449574 0.0121255 
0.766356 -0.474832 -0.424526 0.0837287 -0.400267 0.0807497 0.0360167 
0.101504 -0.349218 0.395795 0.843262 -0.339837 0.0351645 -0.0149391 
0.32579 0.228739 0.913435 0.0847059 -0.08773 0.0176086 0.0332655 
0.62186 -0.412696 -0.0881384 -0.6597 -0.295971 0.291151 -0.00878286 
0.458769 -0.0533405 -0.789383 -0.404425 -0.319225 0.0247542 0.0187243 
0.0812762 0.976381 0.0744001 0.185849 -0.0643819 0.251855 -0.0206362 
0.284282 0.505828 -0.799539 0.155111 -0.406655 0.21203 0.0421622 
0.633939 0.453582 -0.462754 -0.422188 -0.182052 0.151468 -0.0224451 
0.29019 -0.144179 0.456381 0.828685 -0.41462 0.0353284 0.023436 
0.38624 0.907886 0.128954 0.0996596 -0.152837 0.1141 -0.0351591 
0.663325 0.370546 -0.58076 -0.292255 -0.346274 0.226768 -0.0328009 
-0.363645 0.522946 0.311374 0.70522 -0.197184 0.0426247 0.0160267 
-0.496429 0.363256 0.534639 0.579452 -0.313835 0.189752 0.0374272 
-0.0612074 0.381136 0.626185 -0.677408 -0.100932 0.0458462 -0.0219069 
0.64335 -0.656171 0.242839 -0.310757 -0.190014 0.0721353 0.0407783 
0.539805 -0.742119 -0.370291 -0.144065 -0.437278 0.0618326 -0.0272856 
-0.635475 0.685945 -0.341688 -0.0943402 -0.459215 0.0246223 -0.0288595 
0.762499 -0.143285 0.55116 -0.307062 -0.384162 0.275313 0.0415684 
0.156394 -0.0874427 0.0833584 0.980279 -0.0938029 0.271002 0.028534 
0.715582 -0.428197 0.165187 -0.526595 -0.394462 0.0202545 0.00831757 
0.01849 0.778592 0.187686 -0.59852 -0.291961 0.186871 0.0323724 
0.360562 0.748674 0.0195021 0.55597 -0.336502 0.21106 -0.0313386 
-0.201458 -0.230803 -0.225486 -0.924825 -0.318292 0.0363277 -0.0530376 
-0.00244538 0.884672 0.0511109 -0.463397 -0.311411 0.0911993 0.0429187 
-0.281009 0.920096 0.26914 -0.0449463 -0.114915 0.200399 -0.0258792 
0.606576 0.2774 0.733999 -0.12791 -0.0404803 0.0408317 0.0270779 
0.0380279 -0.418218 -0.209143 0.883123 -0.257375 0.110877 0.0226104 
-0.813418 -0.237706 -0.15641 0.507329 -0.208783 0.0194846 -0.0148888 
0.857356 0.102655 -0.208233 0.459392 -0.218712 0.18349 0.024971 
0.630311 0.546477 -0.485181 0.262051 -0.318441 0.191732 -0.0444775 
-0.494922 0.120005 0.633474 -0.582548 -0.408674 0.250223 0.0226097 
0.427981 -0.478591 -0.544655 0.539569 -0.231845 0.0227583 0.0226271 
-0.0650046 -0.374204 0.65591 -0.652325 -0.101868 0.0329598 -0.0493563 
0.627733 0.637905 0.405245 -0.18656 -0.0875092 0.268609 -0.0276594 
-0.168378 0.291416 0.591999 -0.732299 -0.145561 0.265302 -0.0197693 
0.961219 -0.131474 -0.135882 -0.200769 -0.105889 0.105529 -0.0454236 
0.164784 0.16006 0.511678 -0.827896 -0.351446 0.16972 -0.0329899 
-0.0512306 0.154073 0.872247 0.461327 -0.0979239 0.242273 0.0185027 
0.0983478 -0.416453 0.235042 0.872725 -0.40028 0.0687683 0.0378784 
-0.138628 -0.310812 0.114455 0.933316 -0.253612 0.142868 0.0436455 
0.57974 0.280657 -0.0107529 -0.764864 -0.47834 0.254382 -0.00289923 