ITEM: TIMESTEP
200
ITEM: NUMBER OF ENTRIES
1
ITEM: BOX BOUNDS mm mm mm
0 0.6
0 0.6
0 0.5
ITEM: ENTRIES c_quat[1] c_quat[2] c_quat[3] c_quat[4] c_pos[1] c_pos[2] c_pos[3] 
-0.103791 -0.0183016 0.837517 0.536151 0.353436 0.404107 0.28771 
ITEM: TIMESTEP
400
ITEM: NUMBER OF ENTRIES
1
ITEM: BOX BOUNDS mm mm mm
0 0.6
0 0.6
0 0.5
ITEM: ENTRIES c_quat[1] c_quat[2] c_quat[3] c_quat[4] c_pos[1] c_pos[2] c_pos[3] 
-0.103791 -0.0183016 0.837517 0.536151 0.353436 0.404107 0.287651 
ITEM: TIMESTEP
600
ITEM: NUMBER OF ENTRIES
1
ITEM: BOX BOUNDS mm mm mm
0 0.6
0 0.6
0 0.5
ITEM: ENTRIES c_quat[1] c_quat[2] c_quat[3] c_quat[4] c_pos[1] c_pos[2] c_pos[3] 
-0.103791 -0.0183016 0.837517 0.536151 0.353436 0.404107 0.287553 
ITEM: TIMESTEP
800
ITEM: NUMBER OF ENTRIES
1
ITEM: BOX BOUNDS mm mm mm
0 0.6
0 0.6
0 0.5
ITEM: ENTRIES c_quat[1] c_quat[2] c_quat[3] c_quat[4] c_pos[1] c_pos[2] c_pos[3] 
-0.103791 -0.0183016 0.837517 0.536151 0.353436 0.404107 0.287416 
ITEM: TIMESTEP
1000
ITEM: NUMBER OF ENTRIES
1
ITEM: BOX BOUNDS mm mm mm
0 0.6
0 0.6
0 0.5
ITEM: ENTRIES c_quat[1] c_quat[2] c_quat[3] c_quat[4] c_pos[1] c_pos[2] c_pos[3] 
-0.103791 -0.0183016 0.837517 0.536151 0.353436 0.404107 0.287239 
ITEM: TIMESTEP
1200
ITEM: NUMBER OF ENTRIES
1
ITEM: BOX BOUNDS mm mm mm
0 0.6
0 0.6
0 0.5
ITEM: ENTRIES c_quat[1] c_quat[2] c_quat[3] c_quat[4] c_pos[1] c_pos[2] c_pos[3] 
-0.103791 -0.0183016 0.837517 0.536151 0.353436 0.404107 0.287024 
ITEM: TIMESTEP
1400
ITEM: NUMBER OF ENTRIES
1
ITEM: BOX BOUNDS mm mm mm
0 0.6
0 0.6
0 0.5
ITEM: ENTRIES c_quat[1] c_quat[2] c_quat[3] c_quat[4] c_pos[1] c_pos[2] c_pos[3] 
-0.103791 -0.0183016 0.837517 0.536151 0.353436 0.404107 0.286769 
ITEM: TIMESTEP
1600
ITEM: NUMBER OF ENTRIES
1
ITEM: BOX BOUNDS mm mm mm
0 0.6
0 0.6
0 0.5
ITEM: ENTRIES c_quat[1] c_quat[2] c_quat[3] c_quat[4] c_pos[1] c_pos[2] c_pos[3] 
-0.103791 -0.0183016 0.837517 0.536151 0.353436 0.404107 0.286474 
ITEM: TIMESTEP
1800
ITEM: NUMBER OF ENTRIES
1
ITEM: BOX BOUNDS mm mm mm
0 0.6
0 0.6
0 0.5
ITEM: ENTRIES c_quat[1] c_quat[2] c_quat[3] c_quat[4] c_pos[1] c_pos[2] c_pos[3] 
-0.103791 -0.0183016 0.837517 0.536151 0.353436 0.404107 0.286141 
ITEM: TIMESTEP
2000
ITEM: NUMBER OF ENTRIES
1
ITEM: BOX BOUNDS mm mm mm
0 0.6
0 0.6
0 0.5
ITEM: ENTRIES c_quat[1] c_quat[2] c_quat[3] c_quat[4] c_pos[1] c_pos[2] c_pos[3] 
-0.103791 -0.0183016 0.837517 0.536151 0.353436 0.404107 0.285768 
ITEM: TIMESTEP
2200
ITEM: NUMBER OF ENTRIES
1
ITEM: BOX BOUNDS mm mm mm
0 0.6
0 0.6
0 0.5
ITEM: ENTRIES c_quat[1] c_quat[2] c_quat[3] c_quat[4] c_pos[1] c_pos[2] c_pos[3] 
-0.103791 -0.0183016 0.837517 0.536151 0.353436 0.404107 0.285356 
ITEM: TIMESTEP
2400
ITEM: NUMBER OF ENTRIES
1
ITEM: BOX BOUNDS mm mm mm
0 0.6
0 0.6
0 0.5
ITEM: ENTRIES c_quat[1] c_quat[2] c_quat[3] c_quat[4] c_pos[1] c_pos[2] c_pos[3] 
-0.103791 -0.0183016 0.837517 0.536151 0.353436 0.404107 0.284905 
ITEM: TIMESTEP
2600
ITEM: NUMBER OF ENTRIES
1
ITEM: BOX BOUNDS mm mm mm
0 0.6
0 0.6
0 0.5
ITEM: ENTRIES c_quat[1] c_quat[2] c_quat[3] c_quat[4] c_pos[1] c_pos[2] c_pos[3] 
-0.103791 -0.0183016 0.837517 0.536151 0.353436 0.404107 0.284415 
ITEM: TIMESTEP
2800
ITEM: NUMBER OF ENTRIES
1
ITEM: BOX BOUNDS mm mm mm
0 0.6
0 0.6
0 0.5
ITEM: ENTRIES c_quat[1] c_quat[2] c_quat[3] c_quat[4] c_pos[1] c_pos[2] c_pos[3] 
-0.103791 -0.0183016 0.837517 0.536151 0.353436 0.404107 0.283885 
ITEM: TIMESTEP
3000
ITEM: NUMBER OF ENTRIES
1
ITEM: BOX BOUNDS mm mm mm
0 0.6
0 0.6
0 0.5
ITEM: ENTRIES c_quat[1] c_quat[2] c_quat[3] c_quat[4] c_pos[1] c_pos[2] c_pos[3] 
-0.103791 -0.0183016 0.837517 0.536151 0.353436 0.404107 0.283316 
ITEM: TIMESTEP
3200
ITEM: NUMBER OF ENTRIES
1
ITEM: BOX BOUNDS mm mm mm
0 0.6
0 0.6
0 0.5
ITEM: ENTRIES c_quat[1] c_quat[2] c_quat[3] c_quat[4] c_pos[1] c_pos[2] c_pos[3] 
-0.103791 -0.0183016 0.837517 0.536151 0.353436 0.404107 0.282708 
ITEM: TIMESTEP
3400
ITEM: NUMBER OF ENTRIES
1
ITEM: BOX BOUNDS mm mm mm
0 0.6
0 0.6
0 0.5
ITEM: ENTRIES c_quat[1] c_quat[2] c_quat[3] c_quat[4] c_pos[1] c_pos[2] c_pos[3] 
-0.103791 -0.0183016 0.837517 0.536151 0.353436 0.404107 0.282061 
ITEM: TIMESTEP
3600
ITEM: NUMBER OF ENTRIES
1
ITEM: BOX BOUNDS mm mm mm
0 0.6
0 0.6
0 0.5
ITEM: ENTRIES c_quat[1] c_quat[2] c_quat[3] c_quat[4] c_pos[1] c_pos[2] c_pos[3] 
-0.103791 -0.0183016 0.837517 0.536151 0.353436 0.404107 0.281374 
ITEM: TIMESTEP
3800
ITEM: NUMBER OF ENTRIES
1
ITEM: BOX BOUNDS mm mm mm
0 0.6
0 0.6
0 0.5
ITEM: ENTRIES c_quat[1] c_quat[2] c_quat[3] c_quat[4] c_pos[1] c_pos[2] c_pos[3] 
-0.103791 -0.0183016 0.837517 0.536151 0.353436 0.404107 0.280648 
ITEM: TIMESTEP
4000
ITEM: NUMBER OF ENTRIES
1
ITEM: BOX BOUNDS mm mm mm
0 0.6
0 0.6
0 0.5
ITEM: ENTRIES c_quat[1] c_quat[2] c_quat[3] c_quat[4] c_pos[1] c_pos[2] c_pos[3] 
-0.103791 -0.0183016 0.837517 0.536151 0.353436 0.404107 0.279883 
ITEM: TIMESTEP
4200
ITEM: NUMBER OF ENTRIES
1
ITEM: BOX BOUNDS mm mm mm
0 0.6
0 0.6
0 0.5
ITEM: ENTRIES c_quat[1] c_quat[2] c_quat[3] c_quat[4] c_pos[1] c_pos[2] c_pos[3] 
-0.103791 -0.0183016 0.837517 0.536151 0.353436 0.404107 0.279079 
ITEM: TIMESTEP
4400
ITEM: NUMBER OF ENTRIES
1
ITEM: BOX BOUNDS mm mm mm
0 0.6
0 0.6
0 0.5
ITEM: ENTRIES c_quat[1] c_quat[2] c_quat[3] c_quat[4] c_pos[1] c_pos[2] c_pos[3] 
-0.103791 -0.0183016 0.837517 0.536151 0.353436 0.404107 0.278235 
ITEM: TIMESTEP
4600
ITEM: NUMBER OF ENTRIES
1
ITEM: BOX BOUNDS mm mm mm
0 0.6
0 0.6
0 0.5
ITEM: ENTRIES c_quat[1] c_quat[2] c_quat[3] c_quat[4] c_pos[1] c_pos[2] c_pos[3] 
-0.103791 -0.0183016 0.837517 0.536151 0.353436 0.404107 0.277353 
ITEM: TIMESTEP
4800
ITEM: NUMBER OF ENTRIES
1
ITEM: BOX BOUNDS mm mm mm
0 0.6
0 0.6
0 0.5
ITEM: ENTRIES c_quat[1] c_quat[2] c_quat[3] c_quat[4] c_pos[1] c_pos[2] c_pos[3] 
-0.103791 -0.0183016 0.837517 0.536151 0.353436 0.404107 0.27643 
ITEM: TIMESTEP
5000
ITEM: NUMBER OF ENTRIES
1
ITEM: BOX BOUNDS mm mm mm
0 0.6
0 0.6
0 0.5
ITEM: ENTRIES c_quat[1] c_quat[2] c_quat[3] c_quat[4] c_pos[1] c_pos[2] c_pos[3] 
-0.103791 -0.0183016 0.837517 0.536151 0.353436 0.404107 0.275469 
ITEM: TIMESTEP
5200
ITEM: NUMBER OF ENTRIES
1
ITEM: BOX BOUNDS mm mm mm
0 0.6
0 0.6
0 0.5
ITEM: ENTRIES c_quat[1] c_quat[2] c_quat[3] c_quat[4] c_pos[1] c_pos[2] c_pos[3] 
-0.103791 -0.0183016 0.837517 0.536151 0.353436 0.404107 0.274469 
ITEM: TIMESTEP
5400
ITEM: NUMBER OF ENTRIES
1
ITEM: BOX BOUNDS mm mm mm
0 0.6
0 0.6
0 0.5
ITEM: ENTRIES c_quat[1] c_quat[2] c_quat[3] c_quat[4] c_pos[1] c_pos[2] c_pos[3] 
-0.103791 -0.0183016 0.837517 0.536151 0.353436 0.404107 0.273429 
ITEM: TIMESTEP
5600
ITEM: NUMBER OF ENTRIES
1
ITEM: BOX BOUNDS mm mm mm
0 0.6
0 0.6
0 0.5
ITEM: ENTRIES c_quat[1] c_quat[2] c_quat[3] c_quat[4] c_pos[1] c_pos[2] c_pos[3] 
-0.103791 -0.0183016 0.837517 0.536151 0.353436 0.404107 0.27235 
ITEM: TIMESTEP
5800
ITEM: NUMBER OF ENTRIES
1
ITEM: BOX BOUNDS mm mm mm
0 0.6
0 0.6
0 0.5
ITEM: ENTRIES c_quat[1] c_quat[2] c_quat[3] c_quat[4] c_pos[1] c_pos[2] c_pos[3] 
-0.103791 -0.0183016 0.837517 0.536151 0.353436 0.404107 0.271232 
ITEM: TIMESTEP
6000
ITEM: NUMBER OF ENTRIES
1
ITEM: BOX BOUNDS mm mm mm
0 0.6
0 0.6
0 0.5
ITEM: ENTRIES c_quat[1] c_quat[2] c_quat[3] c_quat[4] c_pos[1] c_pos[2] c_pos[3] 
-0.103791 -0.0183016 0.837517 0.536151 0.353436 0.404107 0.270074 
ITEM: TIMESTEP
6200
ITEM: NUMBER OF ENTRIES
1
ITEM: BOX BOUNDS mm mm mm
0 0.6
0 0.6
0 0.5
ITEM: ENTRIES c_quat[1] c_quat[2] c_quat[3] c_quat[4] c_pos[1] c_pos[2] c_pos[3] 
-0.103791 -0.0183016 0.837517 0.536151 0.353436 0.404107 0.268877 
ITEM: TIMESTEP
6400
ITEM: NUMBER OF ENTRIES
1
ITEM: BOX BOUNDS mm mm mm
0 0.6
0 0.6
0 0.5
ITEM: ENTRIES c_quat[1] c_quat[2] c_quat[3] c_quat[4] c_pos[1] c_pos[2] c_pos[3] 
-0.103791 -0.0183016 0.837517 0.536151 0.353436 0.404107 0.267642 
ITEM: TIMESTEP
6600
ITEM: NUMBER OF ENTRIES
1
ITEM: BOX BOUNDS mm mm mm
0 0.6
0 0.6
0 0.5
ITEM: ENTRIES c_quat[1] c_quat[2] c_quat[3] c_quat[4] c_pos[1] c_pos[2] c_pos[3] 
-0.103791 -0.0183016 0.837517 0.536151 0.353436 0.404107 0.266366 
ITEM: TIMESTEP
6800
ITEM: NUMBER OF ENTRIES
1
ITEM: BOX BOUNDS mm mm mm
0 0.6
0 0.6
0 0.5
ITEM: ENTRIES c_quat[1] c_quat[2] c_quat[3] c_quat[4] c_pos[1] c_pos[2] c_pos[3] 
-0.103791 -0.0183016 0.837517 0.536151 0.353436 0.404107 0.265052 
ITEM: TIMESTEP
7000
ITEM: NUMBER OF ENTRIES
1
ITEM: BOX BOUNDS mm mm mm
0 0.6
0 0.6
0 0.5
ITEM: ENTRIES c_quat[1] c_quat[2] c_quat[3] c_quat[4] c_pos[1] c_pos[2] c_pos[3] 
-0.103791 -0.0183016 0.837517 0.536151 0.353436 0.404107 0.263698 
ITEM: TIMESTEP
7200
ITEM: NUMBER OF ENTRIES
1
ITEM: BOX BOUNDS mm mm mm
0 0.6
0 0.6
0 0.5
ITEM: ENTRIES c_quat[1] c_quat[2] c_quat[3] c_quat[4] c_pos[1] c_pos[2] c_pos[3] 
-0.103791 -0.0183016 0.837517 0.536151 0.353436 0.404107 0.262305 
ITEM: TIMESTEP
7400
ITEM: NUMBER OF ENTRIES
1
ITEM: BOX BOUNDS mm mm mm
0 0.6
0 0.6
0 0.5
ITEM: ENTRIES c_quat[1] c_quat[2] c_quat[3] c_quat[4] c_pos[1] c_pos[2] c_pos[3] 
-0.103791 -0.0183016 0.837517 0.536151 0.353436 0.404107 0.260873 
ITEM: TIMESTEP
7600
ITEM: NUMBER OF ENTRIES
1
ITEM: BOX BOUNDS mm mm mm
0 0.6
0 0.6
0 0.5
ITEM: ENTRIES c_quat[1] c_quat[2] c_quat[3] c_quat[4] c_pos[1] c_pos[2] c_pos[3] 
-0.103791 -0.0183016 0.837517 0.536151 0.353436 0.404107 0.259402 
ITEM: TIMESTEP
7800
ITEM: NUMBER OF ENTRIES
1
ITEM: BOX BOUNDS mm mm mm
0 0.6
0 0.6
0 0.5
ITEM: ENTRIES c_quat[1] c_quat[2] c_quat[3] c_quat[4] c_pos[1] c_pos[2] c_pos[3] 
-0.103791 -0.0183016 0.837517 0.536151 0.353436 0.404107 0.257891 
ITEM: TIMESTEP
8000
ITEM: NUMBER OF ENTRIES
1
ITEM: BOX BOUNDS mm mm mm
0 0.6
0 0.6
0 0.5
ITEM: ENTRIES c_quat[1] c_quat[2] c_quat[3] c_quat[4] c_pos[1] c_pos[2] c_pos[3] 
-0.103791 -0.0183016 0.837517 0.536151 0.353436 0.404107 0.256341 
ITEM: TIMESTEP
8200
ITEM: NUMBER OF ENTRIES
1
ITEM: BOX BOUNDS mm mm mm
0 0.6
0 0.6
0 0.5
ITEM: ENTRIES c_quat[1] c_quat[2] c_quat[3] c_quat[4] c_pos[1] c_pos[2] c_pos[3] 
-0.103791 -0.0183016 0.837517 0.536151 0.353436 0.404107 0.254752 
ITEM: TIMESTEP
8400
ITEM: NUMBER OF ENTRIES
1
ITEM: BOX BOUNDS mm mm mm
0 0.6
0 0.6
0 0.5
ITEM: ENTRIES c_quat[1] c_quat[2] c_quat[3] c_quat[4] c_pos[1] c_pos[2] c_pos[3] 
-0.103791 -0.0183016 0.837517 0.536151 0.353436 0.404107 0.253124 
ITEM: TIMESTEP
8600
ITEM: NUMBER OF ENTRIES
1
ITEM: BOX BOUNDS mm mm mm
0 0.6
0 0.6
0 0.5
ITEM: ENTRIES c_quat[1] c_quat[2] c_quat[3] c_quat[4] c_pos[1] c_pos[2] c_pos[3] 
-0.103791 -0.0183016 0.837517 0.536151 0.353436 0.404107 0.251456 
ITEM: TIMESTEP
8800
ITEM: NUMBER OF ENTRIES
1
ITEM: BOX BOUNDS mm mm mm
0 0.6
0 0.6
0 0.5
ITEM: ENTRIES c_quat[1] c_quat[2] c_quat[3] c_quat[4] c_pos[1] c_pos[2] c_pos[3] 
-0.103791 -0.0183016 0.837517 0.536151 0.353436 0.404107 0.249749 
ITEM: TIMESTEP
9000
ITEM: NUMBER OF ENTRIES
1
ITEM: BOX BOUNDS mm mm mm
0 0.6
0 0.6
0 0.5
ITEM: ENTRIES c_quat[1] c_quat[2] c_quat[3] c_quat[4] c_pos[1] c_pos[2] c_pos[3] 
-0.103791 -0.0183016 0.837517 0.536151 0.353436 0.404107 0.248003 
ITEM: TIMESTEP
9200
ITEM: NUMBER OF ENTRIES
1
ITEM: BOX BOUNDS mm mm mm
0 0.6
0 0.6
0 0.5
ITEM: ENTRIES c_quat[1] c_quat[2] c_quat[3] c_quat[4] c_pos[1] c_pos[2] c_pos[3] 
-0.103791 -0.0183016 0.837517 0.536151 0.353436 0.404107 0.246218 
ITEM: TIMESTEP
9400
ITEM: NUMBER OF ENTRIES
1
ITEM: BOX BOUNDS mm mm mm
0 0.6
0 0.6
0 0.5
ITEM: ENTRIES c_quat[1] c_quat[2] c_quat[3] c_quat[4] c_pos[1] c_pos[2] c_pos[3] 
-0.103791 -0.0183016 0.837517 0.536151 0.353436 0.404107 0.244393 
ITEM: TIMESTEP
9600
ITEM: NUMBER OF ENTRIES
1
ITEM: BOX BOUNDS mm mm mm
0 0.6
0 0.6
0 0.5
ITEM: ENTRIES c_quat[1] c_quat[2] c_quat[3] c_quat[4] c_pos[1] c_pos[2] c_pos[3] 
-0.103791 -0.0183016 0.837517 0.536151 0.353436 0.404107 0.242529 
ITEM: TIMESTEP
9800
ITEM: NUMBER OF ENTRIES
1
ITEM: BOX BOUNDS mm mm mm
0 0.6
0 0.6
0 0.5
ITEM: ENTRIES c_quat[1] c_quat[2] c_quat[3] c_quat[4] c_pos[1] c_pos[2] c_pos[3] 
-0.103791 -0.0183016 0.837517 0.536151 0.353436 0.404107 0.240626 
ITEM: TIMESTEP
10000
ITEM: NUMBER OF ENTRIES
1
ITEM: BOX BOUNDS mm mm mm
0 0.6
0 0.6
0 0.5
ITEM: ENTRIES c_quat[1] c_quat[2] c_quat[3] c_quat[4] c_pos[1] c_pos[2] c_pos[3] 
-0.103791 -0.0183016 0.837517 0.536151 0.353436 0.404107 0.238684 
ITEM: TIMESTEP
10200
ITEM: NUMBER OF ENTRIES
1
ITEM: BOX BOUNDS mm mm mm
0 0.6
0 0.6
0 0.5
ITEM: ENTRIES c_quat[1] c_quat[2] c_quat[3] c_quat[4] c_pos[1] c_pos[2] c_pos[3] 
-0.103791 -0.0183016 0.837517 0.536151 0.353436 0.404107 0.236703 
ITEM: TIMESTEP
10400
ITEM: NUMBER OF ENTRIES
1
ITEM: BOX BOUNDS mm mm mm
0 0.6
0 0.6
0 0.5
ITEM: ENTRIES c_quat[1] c_quat[2] c_quat[3] c_quat[4] c_pos[1] c_pos[2] c_pos[3] 
-0.103791 -0.0183016 0.837517 0.536151 0.353436 0.404107 0.234682 
ITEM: TIMESTEP
10600
ITEM: NUMBER OF ENTRIES
1
ITEM: BOX BOUNDS mm mm mm
0 0.6
0 0.6
0 0.5
ITEM: ENTRIES c_quat[1] c_quat[2] c_quat[3] c_quat[4] c_pos[1] c_pos[2] c_pos[3] 
-0.103791 -0.0183016 0.837517 0.536151 0.353436 0.404107 0.232622 
ITEM: TIMESTEP
10800
ITEM: NUMBER OF ENTRIES
1
ITEM: BOX BOUNDS mm mm mm
0 0.6
0 0.6
0 0.5
ITEM: ENTRIES c_quat[1] c_quat[2] c_quat[3] c_quat[4] c_pos[1] c_pos[2] c_pos[3] 
-0.103791 -0.0183016 0.837517 0.536151 0.353436 0.404107 0.230523 
ITEM: TIMESTEP
11000
ITEM: NUMBER OF ENTRIES
1
ITEM: BOX BOUNDS mm mm mm
0 0.6
0 0.6
0 0.5
ITEM: ENTRIES c_quat[1] c_quat[2] c_quat[3] c_quat[4] c_pos[1] c_pos[2] c_pos[3] 
-0.103791 -0.0183016 0.837517 0.536151 0.353436 0.404107 0.228384 
ITEM: TIMESTEP
11200
ITEM: NUMBER OF ENTRIES
1
ITEM: BOX BOUNDS mm mm mm
0 0.6
0 0.6
0 0.5
ITEM: ENTRIES c_quat[1] c_quat[2] c_quat[3] c_quat[4] c_pos[1] c_pos[2] c_pos[3] 
-0.103791 -0.0183016 0.837517 0.536151 0.353436 0.404107 0.226206 
ITEM: TIMESTEP
11400
ITEM: NUMBER OF ENTRIES
1
ITEM: BOX BOUNDS mm mm mm
0 0.6
0 0.6
0 0.5
ITEM: ENTRIES c_quat[1] c_quat[2] c_quat[3] c_quat[4] c_pos[1] c_pos[2] c_pos[3] 
-0.103791 -0.0183016 0.837517 0.536151 0.353436 0.404107 0.223989 
ITEM: TIMESTEP
11600
ITEM: NUMBER OF ENTRIES
1
ITEM: BOX BOUNDS mm mm mm
0 0.6
0 0.6
0 0.5
ITEM: ENTRIES c_quat[1] c_quat[2] c_quat[3] c_quat[4] c_pos[1] c_pos[2] c_pos[3] 
-0.103791 -0.0183016 0.837517 0.536151 0.353436 0.404107 0.221733 
ITEM: TIMESTEP
11800
ITEM: NUMBER OF ENTRIES
1
ITEM: BOX BOUNDS mm mm mm
0 0.6
0 0.6
0 0.5
ITEM: ENTRIES c_quat[1] c_quat[2] c_quat[3] c_quat[4] c_pos[1] c_pos[2] c_pos[3] 
-0.103791 -0.0183016 0.837517 0.536151 0.353436 0.404107 0.219438 
ITEM: TIMESTEP
12000
ITEM: NUMBER OF ENTRIES
1
ITEM: BOX BOUNDS mm mm mm
0 0.6
0 0.6
0 0.5
ITEM: ENTRIES c_quat[1] c_quat[2] c_quat[3] c_quat[4] c_pos[1] c_pos[2] c_pos[3] 
-0.103791 -0.0183016 0.837517 0.536151 0.353436 0.404107 0.217103 
ITEM: TIMESTEP
12200
ITEM: NUMBER OF ENTRIES
1
ITEM: BOX BOUNDS mm mm mm
0 0.6
0 0.6
0 0.5
ITEM: ENTRIES c_quat[1] c_quat[2] c_quat[3] c_quat[4] c_pos[1] c_pos[2] c_pos[3] 
-0.103791 -0.0183016 0.837517 0.536151 0.353436 0.404107 0.214729 
ITEM: TIMESTEP
12400
ITEM: NUMBER OF ENTRIES
1
ITEM: BOX BOUNDS mm mm mm
0 0.6
0 0.6
0 0.5
ITEM: ENTRIES c_quat[1] c_quat[2] c_quat[3] c_quat[4] c_pos[1] c_pos[2] c_pos[3] 
-0.103791 -0.0183016 0.837517 0.536151 0.353436 0.404107 0.212316 
ITEM: TIMESTEP
12600
ITEM: NUMBER OF ENTRIES
1
ITEM: BOX BOUNDS mm mm mm
0 0.6
0 0.6
0 0.5
ITEM: ENTRIES c_quat[1] c_quat[2] c_quat[3] c_quat[4] c_pos[1] c_pos[2] c_pos[3] 
-0.103791 -0.0183016 0.837517 0.536151 0.353436 0.404107 0.209864 
ITEM: TIMESTEP
12800
ITEM: NUMBER OF ENTRIES
1
ITEM: BOX BOUNDS mm mm mm
0 0.6
0 0.6
0 0.5
ITEM: ENTRIES c_quat[1] c_quat[2] c_quat[3] c_quat[4] c_pos[1] c_pos[2] c_pos[3] 
-0.103791 -0.0183016 0.837517 0.536151 0.353436 0.404107 0.207372 
ITEM: TIMESTEP
13000
ITEM: NUMBER OF ENTRIES
1
ITEM: BOX BOUNDS mm mm mm
0 0.6
0 0.6
0 0.5
ITEM: ENTRIES c_quat[1] c_quat[2] c_quat[3] c_quat[4] c_pos[1] c_pos[2] c_pos[3] 
-0.103791 -0.0183016 0.837517 0.536151 0.353436 0.404107 0.204841 
ITEM: TIMESTEP
13200
ITEM: NUMBER OF ENTRIES
1
ITEM: BOX BOUNDS mm mm mm
0 0.6
0 0.6
0 0.5
ITEM: ENTRIES c_quat[1] c_quat[2] c_quat[3] c_quat[4] c_pos[1] c_pos[2] c_pos[3] 
-0.103791 -0.0183016 0.837517 0.536151 0.353436 0.404107 0.202271 
ITEM: TIMESTEP
13400
ITEM: NUMBER OF ENTRIES
1
ITEM: BOX BOUNDS mm mm mm
0 0.6
0 0.6
0 0.5
ITEM: ENTRIES c_quat[1] c_quat[2] c_quat[3] c_quat[4] c_pos[1] c_pos[2] c_pos[3] 
-0.103791 -0.0183016 0.837517 0.536151 0.353436 0.404107 0.199662 
ITEM: TIMESTEP
13600
ITEM: NUMBER OF ENTRIES
1
ITEM: BOX BOUNDS mm mm mm
0 0.6
0 0.6
0 0.5
ITEM: ENTRIES c_quat[1] c_quat[2] c_quat[3] c_quat[4] c_pos[1] c_pos[2] c_pos[3] 
-0.103791 -0.0183016 0.837517 0.536151 0.353436 0.404107 0.197013 
ITEM: TIMESTEP
13800
ITEM: NUMBER OF ENTRIES
1
ITEM: BOX BOUNDS mm mm mm
0 0.6
0 0.6
0 0.5
ITEM: ENTRIES c_quat[1] c_quat[2] c_quat[3] c_quat[4] c_pos[1] c_pos[2] c_pos[3] 
-0.103791 -0.0183016 0.837517 0.536151 0.353436 0.404107 0.194325 
ITEM: TIMESTEP
14000
ITEM: NUMBER OF ENTRIES
1
ITEM: BOX BOUNDS mm mm mm
0 0.6
0 0.6
0 0.5
ITEM: ENTRIES c_quat[1] c_quat[2] c_quat[3] c_quat[4] c_pos[1] c_pos[2] c_pos[3] 
-0.103791 -0.0183016 0.837517 0.536151 0.353436 0.404107 0.191598 
ITEM: TIMESTEP
14200
ITEM: NUMBER OF ENTRIES
1
ITEM: BOX BOUNDS mm mm mm
0 0.6
0 0.6
0 0.5
ITEM: ENTRIES c_quat[1] c_quat[2] c_quat[3] c_quat[4] c_pos[1] c_pos[2] c_pos[3] 
-0.103791 -0.0183016 0.837517 0.536151 0.353436 0.404107 0.188832 
ITEM: TIMESTEP
14400
ITEM: NUMBER OF ENTRIES
1
ITEM: BOX BOUNDS mm mm mm
0 0.6
0 0.6
0 0.5
ITEM: ENTRIES c_quat[1] c_quat[2] c_quat[3] c_quat[4] c_pos[1] c_pos[2] c_pos[3] 
-0.103791 -0.0183016 0.837517 0.536151 0.353436 0.404107 0.186026 
ITEM: TIMESTEP
14600
ITEM: NUMBER OF ENTRIES
1
ITEM: BOX BOUNDS mm mm mm
0 0.6
0 0.6
0 0.5
ITEM: ENTRIES c_quat[1] c_quat[2] c_quat[3] c_quat[4] c_pos[1] c_pos[2] c_pos[3] 
-0.103791 -0.0183016 0.837517 0.536151 0.353436 0.404107 0.183181 
ITEM: TIMESTEP
14800
ITEM: NUMBER OF ENTRIES
1
ITEM: BOX BOUNDS mm mm mm
0 0.6
0 0.6
0 0.5
ITEM: ENTRIES c_quat[1] c_quat[2] c_quat[3] c_quat[4] c_pos[1] c_pos[2] c_pos[3] 
-0.103791 -0.0183016 0.837517 0.536151 0.353436 0.404107 0.180297 
ITEM: TIMESTEP
15000
ITEM: NUMBER OF ENTRIES
1
ITEM: BOX BOUNDS mm mm mm
0 0.6
0 0.6
0 0.5
ITEM: ENTRIES c_quat[1] c_quat[2] c_quat[3] c_quat[4] c_pos[1] c_pos[2] c_pos[3] 
-0.103791 -0.0183016 0.837517 0.536151 0.353436 0.404107 0.177374 
ITEM: TIMESTEP
15200
ITEM: NUMBER OF ENTRIES
1
ITEM: BOX BOUNDS mm mm mm
0 0.6
0 0.6
0 0.5
ITEM: ENTRIES c_quat[1] c_quat[2] c_quat[3] c_quat[4] c_pos[1] c_pos[2] c_pos[3] 
-0.103791 -0.0183016 0.837517 0.536151 0.353436 0.404107 0.174412 
ITEM: TIMESTEP
15400
ITEM: NUMBER OF ENTRIES
1
ITEM: BOX BOUNDS mm mm mm
0 0.6
0 0.6
0 0.5
ITEM: ENTRIES c_quat[1] c_quat[2] c_quat[3] c_quat[4] c_pos[1] c_pos[2] c_pos[3] 
-0.103791 -0.0183016 0.837517 0.536151 0.353436 0.404107 0.17141 
ITEM: TIMESTEP
15600
ITEM: NUMBER OF ENTRIES
1
ITEM: BOX BOUNDS mm mm mm
0 0.6
0 0.6
0 0.5
ITEM: ENTRIES c_quat[1] c_quat[2] c_quat[3] c_quat[4] c_pos[1] c_pos[2] c_pos[3] 
-0.103791 -0.0183016 0.837517 0.536151 0.353436 0.404107 0.168369 
ITEM: TIMESTEP
15800
ITEM: NUMBER OF ENTRIES
1
ITEM: BOX BOUNDS mm mm mm
0 0.6
0 0.6
0 0.5
ITEM: ENTRIES c_quat[1] c_quat[2] c_quat[3] c_quat[4] c_pos[1] c_pos[2] c_pos[3] 
-0.103791 -0.0183016 0.837517 0.536151 0.353436 0.404107 0.165289 
ITEM: TIMESTEP
16000
ITEM: NUMBER OF ENTRIES
1
ITEM: BOX BOUNDS mm mm mm
0 0.6
0 0.6
0 0.5
ITEM: ENTRIES c_quat[1] c_quat[2] c_quat[3] c_quat[4] c_pos[1] c_pos[2] c_pos[3] 
-0.103791 -0.0183016 0.837517 0.536151 0.353436 0.404107 0.162169 
ITEM: TIMESTEP
16200
ITEM: NUMBER OF ENTRIES
1
ITEM: BOX BOUNDS mm mm mm
0 0.6
0 0.6
0 0.5
ITEM: ENTRIES c_quat[1] c_quat[2] c_quat[3] c_quat[4] c_pos[1] c_pos[2] c_pos[3] 
-0.103791 -0.0183016 0.837517 0.536151 0.353436 0.404107 0.15901 
ITEM: TIMESTEP
16400
ITEM: NUMBER OF ENTRIES
1
ITEM: BOX BOUNDS mm mm mm
0 0.6
0 0.6
0 0.5
ITEM: ENTRIES c_quat[1] c_quat[2] c_quat[3] c_quat[4] c_pos[1] c_pos[2] c_pos[3] 
-0.103791 -0.0183016 0.837517 0.536151 0.353436 0.404107 0.155812 
ITEM: TIMESTEP
16600
ITEM: NUMBER OF ENTRIES
1
ITEM: BOX BOUNDS mm mm mm
0 0.6
0 0.6
0 0.5
ITEM: ENTRIES c_quat[1] c_quat[2] c_quat[3] c_quat[4] c_pos[1] c_pos[2] c_pos[3] 
-0.103791 -0.0183016 0.837517 0.536151 0.353436 0.404107 0.152575 
ITEM: TIMESTEP
16800
ITEM: NUMBER OF ENTRIES
1
ITEM: BOX BOUNDS mm mm mm
0 0.6
0 0.6
0 0.5
ITEM: ENTRIES c_quat[1] c_quat[2] c_quat[3] c_quat[4] c_pos[1] c_pos[2] c_pos[3] 
-0.103791 -0.0183016 0.837517 0.536151 0.353436 0.404107 0.149299 
ITEM: TIMESTEP
17000
ITEM: NUMBER OF ENTRIES
1
ITEM: BOX BOUNDS mm mm mm
0 0.6
0 0.6
0 0.5
ITEM: ENTRIES c_quat[1] c_quat[2] c_quat[3] c_quat[4] c_pos[1] c_pos[2] c_pos[3] 
-0.103791 -0.0183016 0.837517 0.536151 0.353436 0.404107 0.145983 
ITEM: TIMESTEP
17200
ITEM: NUMBER OF ENTRIES
1
ITEM: BOX BOUNDS mm mm mm
0 0.6
0 0.6
0 0.5
ITEM: ENTRIES c_quat[1] c_quat[2] c_quat[3] c_quat[4] c_pos[1] c_pos[2] c_pos[3] 
-0.103791 -0.0183016 0.837517 0.536151 0.353436 0.404107 0.142628 
ITEM: TIMESTEP
17400
ITEM: NUMBER OF ENTRIES
1
ITEM: BOX BOUNDS mm mm mm
0 0.6
0 0.6
0 0.5
ITEM: ENTRIES c_quat[1] c_quat[2] c_quat[3] c_quat[4] c_pos[1] c_pos[2] c_pos[3] 
-0.103791 -0.0183016 0.837517 0.536151 0.353436 0.404107 0.139234 
ITEM: TIMESTEP
17600
ITEM: NUMBER OF ENTRIES
1
ITEM: BOX BOUNDS mm mm mm
0 0.6
0 0.6
0 0.5
ITEM: ENTRIES c_quat[1] c_quat[2] c_quat[3] c_quat[4] c_pos[1] c_pos[2] c_pos[3] 
-0.103791 -0.0183016 0.837517 0.536151 0.353436 0.404107 0.135801 
ITEM: TIMESTEP
17800
ITEM: NUMBER OF ENTRIES
1
ITEM: BOX BOUNDS mm mm mm
0 0.6
0 0.6
0 0.5
ITEM: ENTRIES c_quat[1] c_quat[2] c_quat[3] c_quat[4] c_pos[1] c_pos[2] c_pos[3] 
-0.103791 -0.0183016 0.837517 0.536151 0.353436 0.404107 0.132328 
ITEM: TIMESTEP
18000
ITEM: NUMBER OF ENTRIES
1
ITEM: BOX BOUNDS mm mm mm
0 0.6
0 0.6
0 0.5
ITEM: ENTRIES c_quat[1] c_quat[2] c_quat[3] c_quat[4] c_pos[1] c_pos[2] c_pos[3] 
-0.103791 -0.0183016 0.837517 0.536151 0.353436 0.404107 0.128816 
ITEM: TIMESTEP
18200
ITEM: NUMBER OF ENTRIES
1
ITEM: BOX BOUNDS mm mm mm
0 0.6
0 0.6
0 0.5
ITEM: ENTRIES c_quat[1] c_quat[2] c_quat[3] c_quat[4] c_pos[1] c_pos[2] c_pos[3] 
-0.103791 -0.0183016 0.837517 0.536151 0.353436 0.404107 0.125265 
ITEM: TIMESTEP
18400
ITEM: NUMBER OF ENTRIES
1
ITEM: BOX BOUNDS mm mm mm
0 0.6
0 0.6
0 0.5
ITEM: ENTRIES c_quat[1] c_quat[2] c_quat[3] c_quat[4] c_pos[1] c_pos[2] c_pos[3] 
-0.103791 -0.0183016 0.837517 0.536151 0.353436 0.404107 0.121675 
ITEM: TIMESTEP
18600
ITEM: NUMBER OF ENTRIES
1
ITEM: BOX BOUNDS mm mm mm
0 0.6
0 0.6
0 0.5
ITEM: ENTRIES c_quat[1] c_quat[2] c_quat[3] c_quat[4] c_pos[1] c_pos[2] c_pos[3] 
-0.103791 -0.0183016 0.837517 0.536151 0.353436 0.404107 0.118045 
ITEM: TIMESTEP
18800
ITEM: NUMBER OF ENTRIES
1
ITEM: BOX BOUNDS mm mm mm
0 0.6
0 0.6
0 0.5
ITEM: ENTRIES c_quat[1] c_quat[2] c_quat[3] c_quat[4] c_pos[1] c_pos[2] c_pos[3] 
-0.103791 -0.0183016 0.837517 0.536151 0.353436 0.404107 0.114376 
ITEM: TIMESTEP
19000
ITEM: NUMBER OF ENTRIES
1
ITEM: BOX BOUNDS mm mm mm
0 0.6
0 0.6
0 0.5
ITEM: ENTRIES c_quat[1] c_quat[2] c_quat[3] c_quat[4] c_pos[1] c_pos[2] c_pos[3] 
-0.103791 -0.0183016 0.837517 0.536151 0.353436 0.404107 0.110668 
ITEM: TIMESTEP
19200
ITEM: NUMBER OF ENTRIES
1
ITEM: BOX BOUNDS mm mm mm
0 0.6
0 0.6
0 0.5
ITEM: ENTRIES c_quat[1] c_quat[2] c_quat[3] c_quat[4] c_pos[1] c_pos[2] c_pos[3] 
-0.103791 -0.0183016 0.837517 0.536151 0.353436 0.404107 0.106921 
ITEM: TIMESTEP
19400
ITEM: NUMBER OF ENTRIES
1
ITEM: BOX BOUNDS mm mm mm
0 0.6
0 0.6
0 0.5
ITEM: ENTRIES c_quat[1] c_quat[2] c_quat[3] c_quat[4] c_pos[1] c_pos[2] c_pos[3] 
-0.103791 -0.0183016 0.837517 0.536151 0.353436 0.404107 0.103134 
ITEM: TIMESTEP
19600
ITEM: NUMBER OF ENTRIES
1
ITEM: BOX BOUNDS mm mm mm
0 0.6
0 0.6
0 0.5
ITEM: ENTRIES c_quat[1] c_quat[2] c_quat[3] c_quat[4] c_pos[1] c_pos[2] c_pos[3] 
-0.103791 -0.0183016 0.837517 0.536151 0.353436 0.404107 0.0993084 
ITEM: TIMESTEP
19800
ITEM: NUMBER OF ENTRIES
1
ITEM: BOX BOUNDS mm mm mm
0 0.6
0 0.6
0 0.5
ITEM: ENTRIES c_quat[1] c_quat[2] c_quat[3] c_quat[4] c_pos[1] c_pos[2] c_pos[3] 
-0.103791 -0.0183016 0.837517 0.536151 0.353436 0.404107 0.0954433 
ITEM: TIMESTEP
20000
ITEM: NUMBER OF ENTRIES
1
ITEM: BOX BOUNDS mm mm mm
0 0.6
0 0.6
0 0.5
ITEM: ENTRIES c_quat[1] c_quat[2] c_quat[3] c_quat[4] c_pos[1] c_pos[2] c_pos[3] 
-0.103791 -0.0183016 0.837517 0.536151 0.353436 0.404107 0.0915391 
ITEM: TIMESTEP
20200
ITEM: NUMBER OF ENTRIES
1
ITEM: BOX BOUNDS mm mm mm
0 0.6
0 0.6
0 0.5
ITEM: ENTRIES c_quat[1] c_quat[2] c_quat[3] c_quat[4] c_pos[1] c_pos[2] c_pos[3] 
-0.103791 -0.0183016 0.837517 0.536151 0.353436 0.404107 0.0875955 
ITEM: TIMESTEP
20400
ITEM: NUMBER OF ENTRIES
1
ITEM: BOX BOUNDS mm mm mm
0 0.6
0 0.6
0 0.5
ITEM: ENTRIES c_quat[1] c_quat[2] c_quat[3] c_quat[4] c_pos[1] c_pos[2] c_pos[3] 
-0.103791 -0.0183016 0.837517 0.536151 0.353436 0.404107 0.0836128 
ITEM: TIMESTEP
20600
ITEM: NUMBER OF ENTRIES
1
ITEM: BOX BOUNDS mm mm mm
0 0.6
0 0.6
0 0.5
ITEM: ENTRIES c_quat[1] c_quat[2] c_quat[3] c_quat[4] c_pos[1] c_pos[2] c_pos[3] 
-0.103791 -0.0183016 0.837517 0.536151 0.353436 0.404107 0.0795908 
ITEM: TIMESTEP
20800
ITEM: NUMBER OF ENTRIES
1
ITEM: BOX BOUNDS mm mm mm
0 0.6
0 0.6
0 0.5
ITEM: ENTRIES c_quat[1] c_quat[2] c_quat[3] c_quat[4] c_pos[1] c_pos[2] c_pos[3] 
-0.103791 -0.0183016 0.837517 0.536151 0.353436 0.404107 0.0755295 
ITEM: TIMESTEP
21000
ITEM: NUMBER OF ENTRIES
1
ITEM: BOX BOUNDS mm mm mm
0 0.6
0 0.6
0 0.5
ITEM: ENTRIES c_quat[1] c_quat[2] c_quat[3] c_quat[4] c_pos[1] c_pos[2] c_pos[3] 
-0.103791 -0.0183016 0.837517 0.536151 0.353436 0.404107 0.071429 
ITEM: TIMESTEP
21200
ITEM: NUMBER OF ENTRIES
1
ITEM: BOX BOUNDS mm mm mm
0 0.6
0 0.6
0 0.5
ITEM: ENTRIES c_quat[1] c_quat[2] c_quat[3] c_quat[4] c_pos[1] c_pos[2] c_pos[3] 
-0.103791 -0.0183016 0.837517 0.536151 0.353436 0.404107 0.0672893 
ITEM: TIMESTEP
21400
ITEM: NUMBER OF ENTRIES
1
ITEM: BOX BOUNDS mm mm mm
0 0.6
0 0.6
0 0.5
ITEM: ENTRIES c_quat[1] c_quat[2] c_quat[3] c_quat[4] c_pos[1] c_pos[2] c_pos[3] 
-0.103791 -0.0183016 0.837517 0.536151 0.353436 0.404107 0.0631104 
ITEM: TIMESTEP
21600
ITEM: NUMBER OF ENTRIES
1
ITEM: BOX BOUNDS mm mm mm
0 0.6
0 0.6
0 0.5
ITEM: ENTRIES c_quat[1] c_quat[2] c_quat[3] c_quat[4] c_pos[1] c_pos[2] c_pos[3] 
-0.103791 -0.0183016 0.837517 0.536151 0.353436 0.404107 0.0588922 
ITEM: TIMESTEP
21800
ITEM: NUMBER OF ENTRIES
1
ITEM: BOX BOUNDS mm mm mm
0 0.6
0 0.6
0 0.5
ITEM: ENTRIES c_quat[1] c_quat[2] c_quat[3] c_quat[4] c_pos[1] c_pos[2] c_pos[3] 
-0.103791 -0.0183016 0.837517 0.536151 0.353436 0.404107 0.0546347 
ITEM: TIMESTEP
22000
ITEM: NUMBER OF ENTRIES
1
ITEM: BOX BOUNDS mm mm mm
0 0.6
0 0.6
0 0.5
ITEM: ENTRIES c_quat[1] c_quat[2] c_quat[3] c_quat[4] c_pos[1] c_pos[2] c_pos[3] 
-0.103791 -0.0183016 0.837517 0.536151 0.353436 0.404107 0.050338 
ITEM: TIMESTEP
22200
ITEM: NUMBER OF ENTRIES
1
ITEM: BOX BOUNDS mm mm mm
0 0.6
0 0.6
0 0.5
ITEM: ENTRIES c_quat[1] c_quat[2] c_quat[3] c_quat[4] c_pos[1] c_pos[2] c_pos[3] 
-0.103791 -0.0183016 0.837517 0.536151 0.353436 0.404107 0.0460021 
ITEM: TIMESTEP
22400
ITEM: NUMBER OF ENTRIES
1
ITEM: BOX BOUNDS mm mm mm
0 0.6
0 0.6
0 0.5
ITEM: ENTRIES c_quat[1] c_quat[2] c_quat[3] c_quat[4] c_pos[1] c_pos[2] c_pos[3] 
-0.103791 -0.0183016 0.837517 0.536151 0.353436 0.404107 0.041627 
ITEM: TIMESTEP
22600
ITEM: NUMBER OF ENTRIES
1
ITEM: BOX BOUNDS mm mm mm
0 0.6
0 0.6
0 0.5
ITEM: ENTRIES c_quat[1] c_quat[2] c_quat[3] c_quat[4] c_pos[1] c_pos[2] c_pos[3] 
-0.103791 -0.0183016 0.837517 0.536151 0.353436 0.404107 0.0372126 
ITEM: TIMESTEP
22800
ITEM: NUMBER OF ENTRIES
1
ITEM: BOX BOUNDS mm mm mm
0 0.6
0 0.6
0 0.5
ITEM: ENTRIES c_quat[1] c_quat[2] c_quat[3] c_quat[4] c_pos[1] c_pos[2] c_pos[3] 
-0.103791 -0.0183016 0.837517 0.536151 0.353436 0.404107 0.0327589 
ITEM: TIMESTEP
23000
ITEM: NUMBER OF ENTRIES
1
ITEM: BOX BOUNDS mm mm mm
0 0.6
0 0.6
0 0.5
ITEM: ENTRIES c_quat[1] c_quat[2] c_quat[3] c_quat[4] c_pos[1] c_pos[2] c_pos[3] 
-0.103791 -0.0183016 0.837517 0.536151 0.353436 0.404107 0.028266 
ITEM: TIMESTEP
23200
ITEM: NUMBER OF ENTRIES
1
ITEM: BOX BOUNDS mm mm mm
0 0.6
0 0.6
0 0.5
ITEM: ENTRIES c_quat[1] c_quat[2] c_quat[3] c_quat[4] c_pos[1] c_pos[2] c_pos[3] 
-0.103791 -0.0183016 0.837517 0.536151 0.353436 0.404107 0.0237339 
ITEM: TIMESTEP
23400
ITEM: NUMBER OF ENTRIES
1
ITEM: BOX BOUNDS mm mm mm
0 0.6
0 0.6
0 0.5
ITEM: ENTRIES c_quat[1] c_quat[2] c_quat[3] c_quat[4] c_pos[1] c_pos[2] c_pos[3] 
-0.103791 -0.0183016 0.837517 0.536151 0.353436 0.404107 0.0191625 
ITEM: TIMESTEP
23600
ITEM: NUMBER OF ENTRIES
1
ITEM: BOX BOUNDS mm mm mm
0 0.6
0 0.6
0 0.5
ITEM: ENTRIES c_quat[1] c_quat[2] c_quat[3] c_quat[4] c_pos[1] c_pos[2] c_pos[3] 
-0.103791 -0.0183016 0.837517 0.536151 0.353436 0.404107 0.0145519 
ITEM: TIMESTEP
23800
ITEM: NUMBER OF ENTRIES
1
ITEM: BOX BOUNDS mm mm mm
0 0.6
0 0.6
0 0.5
ITEM: ENTRIES c_quat[1] c_quat[2] c_quat[3] c_quat[4] c_pos[1] c_pos[2] c_pos[3] 
-0.103791 -0.0183016 0.837517 0.536151 0.353436 0.404107 0.0099021 
ITEM: TIMESTEP
24000
ITEM: NUMBER OF ENTRIES
1
ITEM: BOX BOUNDS mm mm mm
0 0.6
0 0.6
0 0.5
ITEM: ENTRIES c_quat[1] c_quat[2] c_quat[3] c_quat[4] c_pos[1] c_pos[2] c_pos[3] 
-0.115841 -0.0137578 0.801372 0.586681 0.353538 0.403673 0.00627585 
ITEM: TIMESTEP
24200
ITEM: NUMBER OF ENTRIES
1
ITEM: BOX BOUNDS mm mm mm
0 0.6
0 0.6
0 0.5
ITEM: ENTRIES c_quat[1] c_quat[2] c_quat[3] c_quat[4] c_pos[1] c_pos[2] c_pos[3] 
-0.138869 -0.00432369 0.724791 0.674815 0.353828 0.402443 0.00387762 
ITEM: TIMESTEP
24400
ITEM: NUMBER OF ENTRIES
1
ITEM: BOX BOUNDS mm mm mm
0 0.6
0 0.6
0 0.5
ITEM: ENTRIES c_quat[1] c_quat[2] c_quat[3] c_quat[4] c_pos[1] c_pos[2] c_pos[3] 
-0.135754 -0.00866761 0.706605 0.69441 0.35386 0.402047 0.00325516 
ITEM: TIMESTEP
24600
ITEM: NUMBER OF ENTRIES
1
ITEM: BOX BOUNDS mm mm mm
0 0.6
0 0.6
0 0.5
ITEM: ENTRIES c_quat[1] c_quat[2] c_quat[3] c_quat[4] c_pos[1] c_pos[2] c_pos[3] 
-0.133902 -0.0113307 0.706818 0.694514 0.353835 0.402048 0.00327123 
ITEM: TIMESTEP
24800
ITEM: NUMBER OF ENTRIES
1
ITEM: BOX BOUNDS mm mm mm
0 0.6
0 0.6
0 0.5
ITEM: ENTRIES c_quat[1] c_quat[2] c_quat[3] c_quat[4] c_pos[1] c_pos[2] c_pos[3] 
-0.132407 -0.0129427 0.706812 0.694779 0.353819 0.402045 0.00327701 
ITEM: TIMESTEP
25000
ITEM: NUMBER OF ENTRIES
1
ITEM: BOX BOUNDS mm mm mm
0 0.6
0 0.6
0 0.5
ITEM: ENTRIES c_quat[1] c_quat[2] c_quat[3] c_quat[4] c_pos[1] c_pos[2] c_pos[3] 
-0.131651 -0.0136795 0.706795 0.694926 0.353813 0.402043 0.00327949 
ITEM: TIMESTEP
25200