ITEM: TIMESTEP
200
ITEM: NUMBER OF ATOMS
70
ITEM: BOX BOUNDS mm mm mm
0 0.6
0 0.6
0 0.5
ITEM: ATOMS id xs ys zs 
1 0.59038 0.657942 0.588035 
2 0.594198 0.658794 0.588101 
3 0.596447 0.657893 0.584415 
4 0.594879 0.656141 0.580664 
5 0.591061 0.655289 0.580598 
6 0.588812 0.65619 0.584283 
7 0.59263 0.657041 0.584349 
8 0.589587 0.661605 0.586049 
9 0.593405 0.662456 0.586114 
10 0.595654 0.661556 0.582429 
11 0.594086 0.659803 0.578677 
12 0.590268 0.658952 0.578612 
13 0.588018 0.659852 0.582297 
14 0.591836 0.660704 0.582363 
15 0.588794 0.665267 0.584063 
16 0.592611 0.666119 0.584128 
17 0.594861 0.665218 0.580443 
18 0.593292 0.663466 0.576691 
19 0.589474 0.662614 0.576626 
20 0.587225 0.663515 0.580311 
21 0.591043 0.664366 0.580377 
22 0.588 0.66893 0.582077 
23 0.591818 0.669781 0.582142 
24 0.594067 0.668881 0.578457 
25 0.592499 0.667128 0.574705 
26 0.588681 0.666277 0.57464 
27 0.586432 0.667177 0.578325 
28 0.59025 0.668029 0.578391 
29 0.587207 0.672592 0.58009 
30 0.591025 0.673444 0.580156 
31 0.593274 0.672543 0.576471 
32 0.591706 0.670791 0.572719 
33 0.587888 0.669939 0.572653 
34 0.585639 0.67084 0.576339 
35 0.589456 0.671692 0.576405 
36 0.586414 0.676255 0.578104 
37 0.590232 0.677106 0.57817 
38 0.592481 0.676206 0.574485 
39 0.590912 0.674453 0.570733 
40 0.587095 0.673602 0.570667 
41 0.584845 0.674502 0.574353 
42 0.588663 0.675354 0.574419 
43 0.58562 0.679917 0.576118 
44 0.589438 0.680769 0.576184 
45 0.591688 0.679868 0.572499 
46 0.590119 0.678116 0.568747 
47 0.586301 0.677264 0.568681 
48 0.584052 0.678165 0.572367 
49 0.58787 0.679017 0.572433 
50 0.584827 0.68358 0.574132 
51 0.588645 0.684432 0.574198 
52 0.590894 0.683531 0.570512 
53 0.589326 0.681778 0.566761 
54 0.585508 0.680927 0.566695 
55 0.583259 0.681827 0.570381 
56 0.587077 0.682679 0.570447 
57 0.584034 0.687242 0.572146 
58 0.587852 0.688094 0.572212 
59 0.590101 0.687193 0.568526 
60 0.588533 0.685441 0.564775 
61 0.584715 0.684589 0.564709 
62 0.582465 0.68549 0.568395 
63 0.586283 0.686342 0.568461 
64 0.583241 0.690905 0.57016 
65 0.587058 0.691757 0.570226 
66 0.589308 0.690856 0.56654 
67 0.587739 0.689103 0.562789 
68 0.583922 0.688252 0.562723 
69 0.581672 0.689153 0.566409 
70 0.58549 0.690004 0.566474 
ITEM: TIMESTEP
400
ITEM: NUMBER OF ATOMS
70
ITEM: BOX BOUNDS mm mm mm
0 0.6
0 0.6
0 0.5
ITEM: ATOMS id xs ys zs 
1 0.59038 0.657942 0.587917 
2 0.594198 0.658794 0.587983 
3 0.596447 0.657893 0.584297 
4 0.594879 0.656141 0.580546 
5 0.591061 0.655289 0.58048 
6 0.588812 0.65619 0.584166 
7 0.59263 0.657041 0.584232 
8 0.589587 0.661605 0.585931 
9 0.593405 0.662456 0.585997 
10 0.595654 0.661556 0.582311 
11 0.594086 0.659803 0.57856 
12 0.590268 0.658952 0.578494 
13 0.588018 0.659852 0.58218 
14 0.591836 0.660704 0.582246 
15 0.588794 0.665267 0.583945 
16 0.592611 0.666119 0.584011 
17 0.594861 0.665218 0.580325 
18 0.593292 0.663466 0.576574 
19 0.589474 0.662614 0.576508 
20 0.587225 0.663515 0.580194 
21 0.591043 0.664366 0.580259 
22 0.588 0.66893 0.581959 
23 0.591818 0.669781 0.582025 
24 0.594067 0.668881 0.578339 
25 0.592499 0.667128 0.574588 
26 0.588681 0.666277 0.574522 
27 0.586432 0.667177 0.578208 
28 0.59025 0.668029 0.578273 
29 0.587207 0.672592 0.579973 
30 0.591025 0.673444 0.580039 
31 0.593274 0.672543 0.576353 
32 0.591706 0.670791 0.572602 
33 0.587888 0.669939 0.572536 
34 0.585639 0.67084 0.576222 
35 0.589456 0.671692 0.576287 
36 0.586414 0.676255 0.577987 
37 0.590232 0.677106 0.578053 
38 0.592481 0.676206 0.574367 
39 0.590912 0.674453 0.570616 
40 0.587095 0.673602 0.57055 
41 0.584845 0.674502 0.574235 
42 0.588663 0.675354 0.574301 
43 0.58562 0.679917 0.576001 
44 0.589438 0.680769 0.576067 
45 0.591688 0.679868 0.572381 
46 0.590119 0.678116 0.56863 
47 0.586301 0.677264 0.568564 
48 0.584052 0.678165 0.572249 
49 0.58787 0.679017 0.572315 
50 0.584827 0.68358 0.574015 
51 0.588645 0.684432 0.574081 
52 0.590894 0.683531 0.570395 
53 0.589326 0.681778 0.566643 
54 0.585508 0.680927 0.566578 
55 0.583259 0.681827 0.570263 
56 0.587077 0.682679 0.570329 
57 0.584034 0.687242 0.572029 
58 0.587852 0.688094 0.572094 
59 0.590101 0.687193 0.568409 
60 0.588533 0.685441 0.564657 
61 0.584715 0.684589 0.564592 
62 0.582465 0.68549 0.568277 
63 0.586283 0.686342 0.568343 
64 0.583241 0.690905 0.570043 
65 0.587058 0.691757 0.570108 
66 0.589308 0.690856 0.566423 
67 0.587739 0.689103 0.562671 
68 0.583922 0.688252 0.562606 
69 0.581672 0.689153 0.566291 
70 0.58549 0.690004 0.566357 
ITEM: TIMESTEP
600
ITEM: NUMBER OF ATOMS
70
ITEM: BOX BOUNDS mm mm mm
0 0.6
0 0.6
0 0.5
ITEM: ATOMS id xs ys zs 
1 0.59038 0.657942 0.587721 
2 0.594198 0.658794 0.587787 
3 0.596447 0.657893 0.584101 
4 0.594879 0.656141 0.58035 
5 0.591061 0.655289 0.580284 
6 0.588812 0.65619 0.58397 
7 0.59263 0.657041 0.584036 
8 0.589587 0.661605 0.585735 
9 0.593405 0.662456 0.585801 
10 0.595654 0.661556 0.582115 
11 0.594086 0.659803 0.578364 
12 0.590268 0.658952 0.578298 
13 0.588018 0.659852 0.581984 
14 0.591836 0.660704 0.58205 
15 0.588794 0.665267 0.583749 
16 0.592611 0.666119 0.583815 
17 0.594861 0.665218 0.580129 
18 0.593292 0.663466 0.576378 
19 0.589474 0.662614 0.576312 
20 0.587225 0.663515 0.579998 
21 0.591043 0.664366 0.580063 
22 0.588 0.66893 0.581763 
23 0.591818 0.669781 0.581829 
24 0.594067 0.668881 0.578143 
25 0.592499 0.667128 0.574392 
26 0.588681 0.666277 0.574326 
27 0.586432 0.667177 0.578012 
28 0.59025 0.668029 0.578077 
29 0.587207 0.672592 0.579777 
30 0.591025 0.673444 0.579843 
31 0.593274 0.672543 0.576157 
32 0.591706 0.670791 0.572406 
33 0.587888 0.669939 0.57234 
34 0.585639 0.67084 0.576026 
35 0.589456 0.671692 0.576091 
36 0.586414 0.676255 0.577791 
37 0.590232 0.677106 0.577857 
38 0.592481 0.676206 0.574171 
39 0.590912 0.674453 0.57042 
40 0.587095 0.673602 0.570354 
41 0.584845 0.674502 0.574039 
42 0.588663 0.675354 0.574105 
43 0.58562 0.679917 0.575805 
44 0.589438 0.680769 0.575871 
45 0.591688 0.679868 0.572185 
46 0.590119 0.678116 0.568434 
47 0.586301 0.677264 0.568368 
48 0.584052 0.678165 0.572053 
49 0.58787 0.679017 0.572119 
50 0.584827 0.68358 0.573819 
51 0.588645 0.684432 0.573885 
52 0.590894 0.683531 0.570199 
53 0.589326 0.681778 0.566447 
54 0.585508 0.680927 0.566382 
55 0.583259 0.681827 0.570067 
56 0.587077 0.682679 0.570133 
57 0.584034 0.687242 0.571833 
58 0.587852 0.688094 0.571898 
59 0.590101 0.687193 0.568213 
60 0.588533 0.685441 0.564461 
61 0.584715 0.684589 0.564396 
62 0.582465 0.68549 0.568081 
63 0.586283 0.686342 0.568147 
64 0.583241 0.690905 0.569847 
65 0.587058 0.691757 0.569912 
66 0.589308 0.690856 0.566227 
67 0.587739 0.689103 0.562475 
68 0.583922 0.688252 0.56241 
69 0.581672 0.689153 0.566095 
70 0.58549 0.690004 0.566161 
ITEM: TIMESTEP
800
ITEM: NUMBER OF ATOMS
70
ITEM: BOX BOUNDS mm mm mm
0 0.6
0 0.6
0 0.5
ITEM: ATOMS id xs ys zs 
1 0.59038 0.657942 0.587447 
2 0.594198 0.658794 0.587513 
3 0.596447 0.657893 0.583827 
4 0.594879 0.656141 0.580076 
5 0.591061 0.655289 0.58001 
6 0.588812 0.65619 0.583695 
7 0.59263 0.657041 0.583761 
8 0.589587 0.661605 0.585461 
9 0.593405 0.662456 0.585526 
10 0.595654 0.661556 0.581841 
11 0.594086 0.659803 0.578089 
12 0.590268 0.658952 0.578024 
13 0.588018 0.659852 0.581709 
14 0.591836 0.660704 0.581775 
15 0.588794 0.665267 0.583475 
16 0.592611 0.666119 0.58354 
17 0.594861 0.665218 0.579855 
18 0.593292 0.663466 0.576103 
19 0.589474 0.662614 0.576038 
20 0.587225 0.663515 0.579723 
21 0.591043 0.664366 0.579789 
22 0.588 0.66893 0.581489 
23 0.591818 0.669781 0.581554 
24 0.594067 0.668881 0.577869 
25 0.592499 0.667128 0.574117 
26 0.588681 0.666277 0.574051 
27 0.586432 0.667177 0.577737 
28 0.59025 0.668029 0.577803 
29 0.587207 0.672592 0.579502 
30 0.591025 0.673444 0.579568 
31 0.593274 0.672543 0.575883 
32 0.591706 0.670791 0.572131 
33 0.587888 0.669939 0.572065 
34 0.585639 0.67084 0.575751 
35 0.589456 0.671692 0.575817 
36 0.586414 0.676255 0.577516 
37 0.590232 0.677106 0.577582 
38 0.592481 0.676206 0.573897 
39 0.590912 0.674453 0.570145 
40 0.587095 0.673602 0.570079 
41 0.584845 0.674502 0.573765 
42 0.588663 0.675354 0.573831 
43 0.58562 0.679917 0.57553 
44 0.589438 0.680769 0.575596 
45 0.591688 0.679868 0.57191 
46 0.590119 0.678116 0.568159 
47 0.586301 0.677264 0.568093 
48 0.584052 0.678165 0.571779 
49 0.58787 0.679017 0.571845 
50 0.584827 0.68358 0.573544 
51 0.588645 0.684432 0.57361 
52 0.590894 0.683531 0.569924 
53 0.589326 0.681778 0.566173 
54 0.585508 0.680927 0.566107 
55 0.583259 0.681827 0.569793 
56 0.587077 0.682679 0.569859 
57 0.584034 0.687242 0.571558 
58 0.587852 0.688094 0.571624 
59 0.590101 0.687193 0.567938 
60 0.588533 0.685441 0.564187 
61 0.584715 0.684589 0.564121 
62 0.582465 0.68549 0.567807 
63 0.586283 0.686342 0.567873 
64 0.583241 0.690905 0.569572 
65 0.587058 0.691757 0.569638 
66 0.589308 0.690856 0.565952 
67 0.587739 0.689103 0.562201 
68 0.583922 0.688252 0.562135 
69 0.581672 0.689153 0.565821 
70 0.58549 0.690004 0.565886 
ITEM: TIMESTEP
1000
ITEM: NUMBER OF ATOMS
70
ITEM: BOX BOUNDS mm mm mm
0 0.6
0 0.6
0 0.5
ITEM: ATOMS id xs ys zs 
1 0.59038 0.657942 0.587094 
2 0.594198 0.658794 0.58716 
3 0.596447 0.657893 0.583474 
4 0.594879 0.656141 0.579723 
5 0.591061 0.655289 0.579657 
6 0.588812 0.65619 0.583342 
7 0.59263 0.657041 0.583408 
8 0.589587 0.661605 0.585108 
9 0.593405 0.662456 0.585174 
10 0.595654 0.661556 0.581488 
11 0.594086 0.659803 0.577736 
12 0.590268 0.658952 0.577671 
13 0.588018 0.659852 0.581356 
14 0.591836 0.660704 0.581422 
15 0.588794 0.665267 0.583122 
16 0.592611 0.666119 0.583187 
17 0.594861 0.665218 0.579502 
18 0.593292 0.663466 0.57575 
19 0.589474 0.662614 0.575685 
20 0.587225 0.663515 0.57937 
21 0.591043 0.664366 0.579436 
22 0.588 0.66893 0.581136 
23 0.591818 0.669781 0.581201 
24 0.594067 0.668881 0.577516 
25 0.592499 0.667128 0.573764 
26 0.588681 0.666277 0.573699 
27 0.586432 0.667177 0.577384 
28 0.59025 0.668029 0.57745 
29 0.587207 0.672592 0.579149 
30 0.591025 0.673444 0.579215 
31 0.593274 0.672543 0.57553 
32 0.591706 0.670791 0.571778 
33 0.587888 0.669939 0.571712 
34 0.585639 0.67084 0.575398 
35 0.589456 0.671692 0.575464 
36 0.586414 0.676255 0.577163 
37 0.590232 0.677106 0.577229 
38 0.592481 0.676206 0.573544 
39 0.590912 0.674453 0.569792 
40 0.587095 0.673602 0.569726 
41 0.584845 0.674502 0.573412 
42 0.588663 0.675354 0.573478 
43 0.58562 0.679917 0.575177 
44 0.589438 0.680769 0.575243 
45 0.591688 0.679868 0.571558 
46 0.590119 0.678116 0.567806 
47 0.586301 0.677264 0.56774 
48 0.584052 0.678165 0.571426 
49 0.58787 0.679017 0.571492 
50 0.584827 0.68358 0.573191 
51 0.588645 0.684432 0.573257 
52 0.590894 0.683531 0.569571 
53 0.589326 0.681778 0.56582 
54 0.585508 0.680927 0.565754 
55 0.583259 0.681827 0.56944 
56 0.587077 0.682679 0.569506 
57 0.584034 0.687242 0.571205 
58 0.587852 0.688094 0.571271 
59 0.590101 0.687193 0.567585 
60 0.588533 0.685441 0.563834 
61 0.584715 0.684589 0.563768 
62 0.582465 0.68549 0.567454 
63 0.586283 0.686342 0.56752 
64 0.583241 0.690905 0.569219 
65 0.587058 0.691757 0.569285 
66 0.589308 0.690856 0.565599 
67 0.587739 0.689103 0.561848 
68 0.583922 0.688252 0.561782 
69 0.581672 0.689153 0.565468 
70 0.58549 0.690004 0.565534 
ITEM: TIMESTEP
1200
ITEM: NUMBER OF ATOMS
70
ITEM: BOX BOUNDS mm mm mm
0 0.6
0 0.6
0 0.5
ITEM: ATOMS id xs ys zs 
1 0.59038 0.657942 0.586662 
2 0.594198 0.658794 0.586728 
3 0.596447 0.657893 0.583043 
4 0.594879 0.656141 0.579291 
5 0.591061 0.655289 0.579225 
6 0.588812 0.65619 0.582911 
7 0.59263 0.657041 0.582977 
8 0.589587 0.661605 0.584676 
9 0.593405 0.662456 0.584742 
10 0.595654 0.661556 0.581056 
11 0.594086 0.659803 0.577305 
12 0.590268 0.658952 0.577239 
13 0.588018 0.659852 0.580925 
14 0.591836 0.660704 0.580991 
15 0.588794 0.665267 0.58269 
16 0.592611 0.666119 0.582756 
17 0.594861 0.665218 0.57907 
18 0.593292 0.663466 0.575319 
19 0.589474 0.662614 0.575253 
20 0.587225 0.663515 0.578939 
21 0.591043 0.664366 0.579005 
22 0.588 0.66893 0.580704 
23 0.591818 0.669781 0.58077 
24 0.594067 0.668881 0.577084 
25 0.592499 0.667128 0.573333 
26 0.588681 0.666277 0.573267 
27 0.586432 0.667177 0.576953 
28 0.59025 0.668029 0.577019 
29 0.587207 0.672592 0.578718 
30 0.591025 0.673444 0.578784 
31 0.593274 0.672543 0.575098 
32 0.591706 0.670791 0.571347 
33 0.587888 0.669939 0.571281 
34 0.585639 0.67084 0.574967 
35 0.589456 0.671692 0.575032 
36 0.586414 0.676255 0.576732 
37 0.590232 0.677106 0.576798 
38 0.592481 0.676206 0.573112 
39 0.590912 0.674453 0.569361 
40 0.587095 0.673602 0.569295 
41 0.584845 0.674502 0.572981 
42 0.588663 0.675354 0.573046 
43 0.58562 0.679917 0.574746 
44 0.589438 0.680769 0.574812 
45 0.591688 0.679868 0.571126 
46 0.590119 0.678116 0.567375 
47 0.586301 0.677264 0.567309 
48 0.584052 0.678165 0.570994 
49 0.58787 0.679017 0.57106 
50 0.584827 0.68358 0.57276 
51 0.588645 0.684432 0.572826 
52 0.590894 0.683531 0.56914 
53 0.589326 0.681778 0.565389 
54 0.585508 0.680927 0.565323 
55 0.583259 0.681827 0.569008 
56 0.587077 0.682679 0.569074 
57 0.584034 0.687242 0.570774 
58 0.587852 0.688094 0.57084 
59 0.590101 0.687193 0.567154 
60 0.588533 0.685441 0.563403 
61 0.584715 0.684589 0.563337 
62 0.582465 0.68549 0.567022 
63 0.586283 0.686342 0.567088 
64 0.583241 0.690905 0.568788 
65 0.587058 0.691757 0.568853 
66 0.589308 0.690856 0.565168 
67 0.587739 0.689103 0.561416 
68 0.583922 0.688252 0.561351 
69 0.581672 0.689153 0.565036 
70 0.58549 0.690004 0.565102 
ITEM: TIMESTEP
1400
ITEM: NUMBER OF ATOMS
70
ITEM: BOX BOUNDS mm mm mm
0 0.6
0 0.6
0 0.5
ITEM: ATOMS id xs ys zs 
1 0.59038 0.657942 0.586152 
2 0.594198 0.658794 0.586218 
3 0.596447 0.657893 0.582533 
4 0.594879 0.656141 0.578781 
5 0.591061 0.655289 0.578715 
6 0.588812 0.65619 0.582401 
7 0.59263 0.657041 0.582467 
8 0.589587 0.661605 0.584166 
9 0.593405 0.662456 0.584232 
10 0.595654 0.661556 0.580547 
11 0.594086 0.659803 0.576795 
12 0.590268 0.658952 0.576729 
13 0.588018 0.659852 0.580415 
14 0.591836 0.660704 0.580481 
15 0.588794 0.665267 0.58218 
16 0.592611 0.666119 0.582246 
17 0.594861 0.665218 0.57856 
18 0.593292 0.663466 0.574809 
19 0.589474 0.662614 0.574743 
20 0.587225 0.663515 0.578429 
21 0.591043 0.664366 0.578495 
22 0.588 0.66893 0.580194 
23 0.591818 0.669781 0.58026 
24 0.594067 0.668881 0.576574 
25 0.592499 0.667128 0.572823 
26 0.588681 0.666277 0.572757 
27 0.586432 0.667177 0.576443 
28 0.59025 0.668029 0.576509 
29 0.587207 0.672592 0.578208 
30 0.591025 0.673444 0.578274 
31 0.593274 0.672543 0.574588 
32 0.591706 0.670791 0.570837 
33 0.587888 0.669939 0.570771 
34 0.585639 0.67084 0.574457 
35 0.589456 0.671692 0.574523 
36 0.586414 0.676255 0.576222 
37 0.590232 0.677106 0.576288 
38 0.592481 0.676206 0.572602 
39 0.590912 0.674453 0.568851 
40 0.587095 0.673602 0.568785 
41 0.584845 0.674502 0.572471 
42 0.588663 0.675354 0.572536 
43 0.58562 0.679917 0.574236 
44 0.589438 0.680769 0.574302 
45 0.591688 0.679868 0.570616 
46 0.590119 0.678116 0.566865 
47 0.586301 0.677264 0.566799 
48 0.584052 0.678165 0.570485 
49 0.58787 0.679017 0.57055 
50 0.584827 0.68358 0.57225 
51 0.588645 0.684432 0.572316 
52 0.590894 0.683531 0.56863 
53 0.589326 0.681778 0.564879 
54 0.585508 0.680927 0.564813 
55 0.583259 0.681827 0.568498 
56 0.587077 0.682679 0.568564 
57 0.584034 0.687242 0.570264 
58 0.587852 0.688094 0.57033 
59 0.590101 0.687193 0.566644 
60 0.588533 0.685441 0.562893 
61 0.584715 0.684589 0.562827 
62 0.582465 0.68549 0.566512 
63 0.586283 0.686342 0.566578 
64 0.583241 0.690905 0.568278 
65 0.587058 0.691757 0.568344 
66 0.589308 0.690856 0.564658 
67 0.587739 0.689103 0.560907 
68 0.583922 0.688252 0.560841 
69 0.581672 0.689153 0.564526 
70 0.58549 0.690004 0.564592 
ITEM: TIMESTEP
1600
ITEM: NUMBER OF ATOMS
70
ITEM: BOX BOUNDS mm mm mm
0 0.6
0 0.6
0 0.5
ITEM: ATOMS id xs ys zs 
1 0.59038 0.657942 0.585564 
2 0.594198 0.658794 0.58563 
3 0.596447 0.657893 0.581944 
4 0.594879 0.656141 0.578193 
5 0.591061 0.655289 0.578127 
6 0.588812 0.65619 0.581813 
7 0.59263 0.657041 0.581878 
8 0.589587 0.661605 0.583578 
9 0.593405 0.662456 0.583644 
10 0.595654 0.661556 0.579958 
11 0.594086 0.659803 0.576207 
12 0.590268 0.658952 0.576141 
13 0.588018 0.659852 0.579827 
14 0.591836 0.660704 0.579892 
15 0.588794 0.665267 0.581592 
16 0.592611 0.666119 0.581658 
17 0.594861 0.665218 0.577972 
18 0.593292 0.663466 0.574221 
19 0.589474 0.662614 0.574155 
20 0.587225 0.663515 0.57784 
21 0.591043 0.664366 0.577906 
22 0.588 0.66893 0.579606 
23 0.591818 0.669781 0.579672 
24 0.594067 0.668881 0.575986 
25 0.592499 0.667128 0.572235 
26 0.588681 0.666277 0.572169 
27 0.586432 0.667177 0.575854 
28 0.59025 0.668029 0.57592 
29 0.587207 0.672592 0.57762 
30 0.591025 0.673444 0.577686 
31 0.593274 0.672543 0.574 
32 0.591706 0.670791 0.570248 
33 0.587888 0.669939 0.570183 
34 0.585639 0.67084 0.573868 
35 0.589456 0.671692 0.573934 
36 0.586414 0.676255 0.575634 
37 0.590232 0.677106 0.575699 
38 0.592481 0.676206 0.572014 
39 0.590912 0.674453 0.568262 
40 0.587095 0.673602 0.568197 
41 0.584845 0.674502 0.571882 
42 0.588663 0.675354 0.571948 
43 0.58562 0.679917 0.573648 
44 0.589438 0.680769 0.573713 
45 0.591688 0.679868 0.570028 
46 0.590119 0.678116 0.566276 
47 0.586301 0.677264 0.566211 
48 0.584052 0.678165 0.569896 
49 0.58787 0.679017 0.569962 
50 0.584827 0.68358 0.571661 
51 0.588645 0.684432 0.571727 
52 0.590894 0.683531 0.568042 
53 0.589326 0.681778 0.56429 
54 0.585508 0.680927 0.564224 
55 0.583259 0.681827 0.56791 
56 0.587077 0.682679 0.567976 
57 0.584034 0.687242 0.569675 
58 0.587852 0.688094 0.569741 
59 0.590101 0.687193 0.566056 
60 0.588533 0.685441 0.562304 
61 0.584715 0.684589 0.562238 
62 0.582465 0.68549 0.565924 
63 0.586283 0.686342 0.56599 
64 0.583241 0.690905 0.567689 
65 0.587058 0.691757 0.567755 
66 0.589308 0.690856 0.56407 
67 0.587739 0.689103 0.560318 
68 0.583922 0.688252 0.560252 
69 0.581672 0.689153 0.563938 
70 0.58549 0.690004 0.564004 
ITEM: TIMESTEP
1800
ITEM: NUMBER OF ATOMS
70
ITEM: BOX BOUNDS mm mm mm
0 0.6
0 0.6
0 0.5
ITEM: ATOMS id xs ys zs 
1 0.59038 0.657942 0.584897 
2 0.594198 0.658794 0.584963 
3 0.596447 0.657893 0.581277 
4 0.594879 0.656141 0.577526 
5 0.591061 0.655289 0.57746 
6 0.588812 0.65619 0.581146 
7 0.59263 0.657041 0.581212 
8 0.589587 0.661605 0.582911 
9 0.593405 0.662456 0.582977 
10 0.595654 0.661556 0.579291 
11 0.594086 0.659803 0.57554 
12 0.590268 0.658952 0.575474 
13 0.588018 0.659852 0.57916 
14 0.591836 0.660704 0.579225 
15 0.588794 0.665267 0.580925 
16 0.592611 0.666119 0.580991 
17 0.594861 0.665218 0.577305 
18 0.593292 0.663466 0.573554 
19 0.589474 0.662614 0.573488 
20 0.587225 0.663515 0.577174 
21 0.591043 0.664366 0.577239 
22 0.588 0.66893 0.578939 
23 0.591818 0.669781 0.579005 
24 0.594067 0.668881 0.575319 
25 0.592499 0.667128 0.571568 
26 0.588681 0.666277 0.571502 
27 0.586432 0.667177 0.575187 
28 0.59025 0.668029 0.575253 
29 0.587207 0.672592 0.576953 
30 0.591025 0.673444 0.577019 
31 0.593274 0.672543 0.573333 
32 0.591706 0.670791 0.569582 
33 0.587888 0.669939 0.569516 
34 0.585639 0.67084 0.573201 
35 0.589456 0.671692 0.573267 
36 0.586414 0.676255 0.574967 
37 0.590232 0.677106 0.575033 
38 0.592481 0.676206 0.571347 
39 0.590912 0.674453 0.567596 
40 0.587095 0.673602 0.56753 
41 0.584845 0.674502 0.571215 
42 0.588663 0.675354 0.571281 
43 0.58562 0.679917 0.572981 
44 0.589438 0.680769 0.573046 
45 0.591688 0.679868 0.569361 
46 0.590119 0.678116 0.565609 
47 0.586301 0.677264 0.565544 
48 0.584052 0.678165 0.569229 
49 0.58787 0.679017 0.569295 
50 0.584827 0.68358 0.570995 
51 0.588645 0.684432 0.57106 
52 0.590894 0.683531 0.567375 
53 0.589326 0.681778 0.563623 
54 0.585508 0.680927 0.563558 
55 0.583259 0.681827 0.567243 
56 0.587077 0.682679 0.567309 
57 0.584034 0.687242 0.569009 
58 0.587852 0.688094 0.569074 
59 0.590101 0.687193 0.565389 
60 0.588533 0.685441 0.561637 
61 0.584715 0.684589 0.561572 
62 0.582465 0.68549 0.565257 
63 0.586283 0.686342 0.565323 
64 0.583241 0.690905 0.567022 
65 0.587058 0.691757 0.567088 
66 0.589308 0.690856 0.563403 
67 0.587739 0.689103 0.559651 
68 0.583922 0.688252 0.559585 
69 0.581672 0.689153 0.563271 
70 0.58549 0.690004 0.563337 
ITEM: TIMESTEP
2000
ITEM: NUMBER OF ATOMS
70
ITEM: BOX BOUNDS mm mm mm
0 0.6
0 0.6
0 0.5
ITEM: ATOMS id xs ys zs 
1 0.59038 0.657942 0.584152 
2 0.594198 0.658794 0.584218 
3 0.596447 0.657893 0.580532 
4 0.594879 0.656141 0.576781 
5 0.591061 0.655289 0.576715 
6 0.588812 0.65619 0.5804 
7 0.59263 0.657041 0.580466 
8 0.589587 0.661605 0.582166 
9 0.593405 0.662456 0.582231 
10 0.595654 0.661556 0.578546 
11 0.594086 0.659803 0.574794 
12 0.590268 0.658952 0.574729 
13 0.588018 0.659852 0.578414 
14 0.591836 0.660704 0.57848 
15 0.588794 0.665267 0.58018 
16 0.592611 0.666119 0.580245 
17 0.594861 0.665218 0.57656 
18 0.593292 0.663466 0.572808 
19 0.589474 0.662614 0.572743 
20 0.587225 0.663515 0.576428 
21 0.591043 0.664366 0.576494 
22 0.588 0.66893 0.578194 
23 0.591818 0.669781 0.578259 
24 0.594067 0.668881 0.574574 
25 0.592499 0.667128 0.570822 
26 0.588681 0.666277 0.570757 
27 0.586432 0.667177 0.574442 
28 0.59025 0.668029 0.574508 
29 0.587207 0.672592 0.576207 
30 0.591025 0.673444 0.576273 
31 0.593274 0.672543 0.572588 
32 0.591706 0.670791 0.568836 
33 0.587888 0.669939 0.56877 
34 0.585639 0.67084 0.572456 
35 0.589456 0.671692 0.572522 
36 0.586414 0.676255 0.574221 
37 0.590232 0.677106 0.574287 
38 0.592481 0.676206 0.570602 
39 0.590912 0.674453 0.56685 
40 0.587095 0.673602 0.566784 
41 0.584845 0.674502 0.57047 
42 0.588663 0.675354 0.570536 
43 0.58562 0.679917 0.572235 
44 0.589438 0.680769 0.572301 
45 0.591688 0.679868 0.568616 
46 0.590119 0.678116 0.564864 
47 0.586301 0.677264 0.564798 
48 0.584052 0.678165 0.568484 
49 0.58787 0.679017 0.56855 
50 0.584827 0.68358 0.570249 
51 0.588645 0.684432 0.570315 
52 0.590894 0.683531 0.566629 
53 0.589326 0.681778 0.562878 
54 0.585508 0.680927 0.562812 
55 0.583259 0.681827 0.566498 
56 0.587077 0.682679 0.566564 
57 0.584034 0.687242 0.568263 
58 0.587852 0.688094 0.568329 
59 0.590101 0.687193 0.564643 
60 0.588533 0.685441 0.560892 
61 0.584715 0.684589 0.560826 
62 0.582465 0.68549 0.564512 
63 0.586283 0.686342 0.564578 
64 0.583241 0.690905 0.566277 
65 0.587058 0.691757 0.566343 
66 0.589308 0.690856 0.562657 
67 0.587739 0.689103 0.558906 
68 0.583922 0.688252 0.55884 
69 0.581672 0.689153 0.562526 
70 0.58549 0.690004 0.562591 
ITEM: TIMESTEP
2200
ITEM: NUMBER OF ATOMS
70
ITEM: BOX BOUNDS mm mm mm
0 0.6
0 0.6
0 0.5
ITEM: ATOMS id xs ys zs 
1 0.59038 0.657942 0.583328 
2 0.594198 0.658794 0.583394 
3 0.596447 0.657893 0.579708 
4 0.594879 0.656141 0.575957 
5 0.591061 0.655289 0.575891 
6 0.588812 0.65619 0.579576 
7 0.59263 0.657041 0.579642 
8 0.589587 0.661605 0.581342 
9 0.593405 0.662456 0.581408 
10 0.595654 0.661556 0.577722 
11 0.594086 0.659803 0.573971 
12 0.590268 0.658952 0.573905 
13 0.588018 0.659852 0.57759 
14 0.591836 0.660704 0.577656 
15 0.588794 0.665267 0.579356 
16 0.592611 0.666119 0.579422 
17 0.594861 0.665218 0.575736 
18 0.593292 0.663466 0.571985 
19 0.589474 0.662614 0.571919 
20 0.587225 0.663515 0.575604 
21 0.591043 0.664366 0.57567 
22 0.588 0.66893 0.57737 
23 0.591818 0.669781 0.577436 
24 0.594067 0.668881 0.57375 
25 0.592499 0.667128 0.569998 
26 0.588681 0.666277 0.569933 
27 0.586432 0.667177 0.573618 
28 0.59025 0.668029 0.573684 
29 0.587207 0.672592 0.575384 
30 0.591025 0.673444 0.575449 
31 0.593274 0.672543 0.571764 
32 0.591706 0.670791 0.568012 
33 0.587888 0.669939 0.567947 
34 0.585639 0.67084 0.571632 
35 0.589456 0.671692 0.571698 
36 0.586414 0.676255 0.573398 
37 0.590232 0.677106 0.573463 
38 0.592481 0.676206 0.569778 
39 0.590912 0.674453 0.566026 
40 0.587095 0.673602 0.565961 
41 0.584845 0.674502 0.569646 
42 0.588663 0.675354 0.569712 
43 0.58562 0.679917 0.571411 
44 0.589438 0.680769 0.571477 
45 0.591688 0.679868 0.567792 
46 0.590119 0.678116 0.56404 
47 0.586301 0.677264 0.563974 
48 0.584052 0.678165 0.56766 
49 0.58787 0.679017 0.567726 
50 0.584827 0.68358 0.569425 
51 0.588645 0.684432 0.569491 
52 0.590894 0.683531 0.565806 
53 0.589326 0.681778 0.562054 
54 0.585508 0.680927 0.561988 
55 0.583259 0.681827 0.565674 
56 0.587077 0.682679 0.56574 
57 0.584034 0.687242 0.567439 
58 0.587852 0.688094 0.567505 
59 0.590101 0.687193 0.56382 
60 0.588533 0.685441 0.560068 
61 0.584715 0.684589 0.560002 
62 0.582465 0.68549 0.563688 
63 0.586283 0.686342 0.563754 
64 0.583241 0.690905 0.565453 
65 0.587058 0.691757 0.565519 
66 0.589308 0.690856 0.561833 
67 0.587739 0.689103 0.558082 
68 0.583922 0.688252 0.558016 
69 0.581672 0.689153 0.561702 
70 0.58549 0.690004 0.561768 
ITEM: TIMESTEP
2400
ITEM: NUMBER OF ATOMS
70
ITEM: BOX BOUNDS mm mm mm
0 0.6
0 0.6
0 0.5
ITEM: ATOMS id xs ys zs 
1 0.59038 0.657942 0.582426 
2 0.594198 0.658794 0.582491 
3 0.596447 0.657893 0.578806 
4 0.594879 0.656141 0.575054 
5 0.591061 0.655289 0.574989 
6 0.588812 0.65619 0.578674 
7 0.59263 0.657041 0.57874 
8 0.589587 0.661605 0.58044 
9 0.593405 0.662456 0.580505 
10 0.595654 0.661556 0.57682 
11 0.594086 0.659803 0.573068 
12 0.590268 0.658952 0.573002 
13 0.588018 0.659852 0.576688 
14 0.591836 0.660704 0.576754 
15 0.588794 0.665267 0.578453 
16 0.592611 0.666119 0.578519 
17 0.594861 0.665218 0.574834 
18 0.593292 0.663466 0.571082 
19 0.589474 0.662614 0.571016 
20 0.587225 0.663515 0.574702 
21 0.591043 0.664366 0.574768 
22 0.588 0.66893 0.576467 
23 0.591818 0.669781 0.576533 
24 0.594067 0.668881 0.572848 
25 0.592499 0.667128 0.569096 
26 0.588681 0.666277 0.56903 
27 0.586432 0.667177 0.572716 
28 0.59025 0.668029 0.572782 
29 0.587207 0.672592 0.574481 
30 0.591025 0.673444 0.574547 
31 0.593274 0.672543 0.570861 
32 0.591706 0.670791 0.56711 
33 0.587888 0.669939 0.567044 
34 0.585639 0.67084 0.57073 
35 0.589456 0.671692 0.570796 
36 0.586414 0.676255 0.572495 
37 0.590232 0.677106 0.572561 
38 0.592481 0.676206 0.568875 
39 0.590912 0.674453 0.565124 
40 0.587095 0.673602 0.565058 
41 0.584845 0.674502 0.568744 
42 0.588663 0.675354 0.56881 
43 0.58562 0.679917 0.570509 
44 0.589438 0.680769 0.570575 
45 0.591688 0.679868 0.566889 
46 0.590119 0.678116 0.563138 
47 0.586301 0.677264 0.563072 
48 0.584052 0.678165 0.566758 
49 0.58787 0.679017 0.566824 
50 0.584827 0.68358 0.568523 
51 0.588645 0.684432 0.568589 
52 0.590894 0.683531 0.564903 
53 0.589326 0.681778 0.561152 
54 0.585508 0.680927 0.561086 
55 0.583259 0.681827 0.564772 
56 0.587077 0.682679 0.564837 
57 0.584034 0.687242 0.566537 
58 0.587852 0.688094 0.566603 
59 0.590101 0.687193 0.562917 
60 0.588533 0.685441 0.559166 
61 0.584715 0.684589 0.5591 
62 0.582465 0.68549 0.562786 
63 0.586283 0.686342 0.562851 
64 0.583241 0.690905 0.564551 
65 0.587058 0.691757 0.564617 
66 0.589308 0.690856 0.560931 
67 0.587739 0.689103 0.55718 
68 0.583922 0.688252 0.557114 
69 0.581672 0.689153 0.5608 
70 0.58549 0.690004 0.560865 
ITEM: TIMESTEP
2600
ITEM: NUMBER OF ATOMS
70
ITEM: BOX BOUNDS mm mm mm
0 0.6
0 0.6
0 0.5
ITEM: ATOMS id xs ys zs 
1 0.59038 0.657942 0.581445 
2 0.594198 0.658794 0.581511 
3 0.596447 0.657893 0.577825 
4 0.594879 0.656141 0.574074 
5 0.591061 0.655289 0.574008 
6 0.588812 0.65619 0.577693 
7 0.59263 0.657041 0.577759 
8 0.589587 0.661605 0.579459 
9 0.593405 0.662456 0.579525 
10 0.595654 0.661556 0.575839 
11 0.594086 0.659803 0.572087 
12 0.590268 0.658952 0.572022 
13 0.588018 0.659852 0.575707 
14 0.591836 0.660704 0.575773 
15 0.588794 0.665267 0.577473 
16 0.592611 0.666119 0.577538 
17 0.594861 0.665218 0.573853 
18 0.593292 0.663466 0.570101 
19 0.589474 0.662614 0.570036 
20 0.587225 0.663515 0.573721 
21 0.591043 0.664366 0.573787 
22 0.588 0.66893 0.575487 
23 0.591818 0.669781 0.575552 
24 0.594067 0.668881 0.571867 
25 0.592499 0.667128 0.568115 
26 0.588681 0.666277 0.56805 
27 0.586432 0.667177 0.571735 
28 0.59025 0.668029 0.571801 
29 0.587207 0.672592 0.5735 
30 0.591025 0.673444 0.573566 
31 0.593274 0.672543 0.569881 
32 0.591706 0.670791 0.566129 
33 0.587888 0.669939 0.566063 
34 0.585639 0.67084 0.569749 
35 0.589456 0.671692 0.569815 
36 0.586414 0.676255 0.571514 
37 0.590232 0.677106 0.57158 
38 0.592481 0.676206 0.567895 
39 0.590912 0.674453 0.564143 
40 0.587095 0.673602 0.564077 
41 0.584845 0.674502 0.567763 
42 0.588663 0.675354 0.567829 
43 0.58562 0.679917 0.569528 
44 0.589438 0.680769 0.569594 
45 0.591688 0.679868 0.565909 
46 0.590119 0.678116 0.562157 
47 0.586301 0.677264 0.562091 
48 0.584052 0.678165 0.565777 
49 0.58787 0.679017 0.565843 
50 0.584827 0.68358 0.567542 
51 0.588645 0.684432 0.567608 
52 0.590894 0.683531 0.563922 
53 0.589326 0.681778 0.560171 
54 0.585508 0.680927 0.560105 
55 0.583259 0.681827 0.563791 
56 0.587077 0.682679 0.563857 
57 0.584034 0.687242 0.565556 
58 0.587852 0.688094 0.565622 
59 0.590101 0.687193 0.561936 
60 0.588533 0.685441 0.558185 
61 0.584715 0.684589 0.558119 
62 0.582465 0.68549 0.561805 
63 0.586283 0.686342 0.561871 
64 0.583241 0.690905 0.56357 
65 0.587058 0.691757 0.563636 
66 0.589308 0.690856 0.55995 
67 0.587739 0.689103 0.556199 
68 0.583922 0.688252 0.556133 
69 0.581672 0.689153 0.559819 
70 0.58549 0.690004 0.559885 
ITEM: TIMESTEP
2800
ITEM: NUMBER OF ATOMS
70
ITEM: BOX BOUNDS mm mm mm
0 0.6
0 0.6
0 0.5
ITEM: ATOMS id xs ys zs 
1 0.59038 0.657942 0.580386 
2 0.594198 0.658794 0.580451 
3 0.596447 0.657893 0.576766 
4 0.594879 0.656141 0.573014 
5 0.591061 0.655289 0.572948 
6 0.588812 0.65619 0.576634 
7 0.59263 0.657041 0.5767 
8 0.589587 0.661605 0.578399 
9 0.593405 0.662456 0.578465 
10 0.595654 0.661556 0.57478 
11 0.594086 0.659803 0.571028 
12 0.590268 0.658952 0.570962 
13 0.588018 0.659852 0.574648 
14 0.591836 0.660704 0.574714 
15 0.588794 0.665267 0.576413 
16 0.592611 0.666119 0.576479 
17 0.594861 0.665218 0.572794 
18 0.593292 0.663466 0.569042 
19 0.589474 0.662614 0.568976 