ITEM: TIMESTEP
200
ITEM: NUMBER OF ENTRIES
30
ITEM: BOX BOUNDS mm mm mm
0 0.6
0 0.6
0 0.5
ITEM: ENTRIES c_quat[1] c_quat[2] c_quat[3] c_quat[4] c_pos[1] c_pos[2] c_pos[3] 
-0.101441 -0.477409 0.534344 0.690121 0.153873 0.148237 0.161529 
0.357183 0.556353 -0.520289 -0.540547 0.181577 0.159446 0.158042 
0.508094 0.119848 0.133673 -0.842383 0.182661 0.187458 0.153395 
0.201105 -0.0188585 0.290561 0.935294 0.162804 0.244134 0.133649 
0.520443 0.735878 -0.15035 -0.406224 0.230889 0.145164 0.139606 
0.238813 0.268477 0.915626 -0.180328 0.26834 0.18221 0.149796 
0.122792 0.980488 -0.100851 0.115737 0.185237 0.286345 0.150636 
0.569067 -0.708019 -0.360041 -0.212701 0.249107 0.145392 0.155589 
0.67666 0.448921 -0.557448 -0.172776 0.220394 0.36686 0.161871 
0.906535 -0.404508 -0.0766814 -0.0932028 0.102265 0.361108 0.12271 
-0.484926 0.198085 0.85176 0.0106943 0.275024 0.331857 0.108102 
0.498004 0.611476 -0.614716 0.0146098 0.175411 0.332016 0.143421 
0.208003 0.878055 0.40658 -0.142991 0.103394 0.335705 0.149636 
0.539102 0.0889519 -0.807354 -0.22279 0.229883 0.44513 0.197046 
-0.45107 0.792137 -0.26184 -0.317008 0.248146 0.388188 0.188687 
-0.464109 0.651667 0.460251 0.384842 0.486915 0.185484 0.162214 
0.0971274 0.685403 0.518184 0.502269 0.422953 0.16277 0.187378 
-0.123482 0.68072 -0.650643 -0.313106 0.493093 0.214999 0.195449 
0.11601 0.686972 -0.389379 -0.602491 0.387245 0.219579 0.182555 
0.675656 0.504418 0.537453 -0.0140013 0.371164 0.153039 0.11498 
-0.105655 -0.16569 0.904523 0.378448 0.482482 0.281822 0.137046 
-0.260931 -0.293973 0.613827 -0.684625 0.42155 0.185066 0.148636 
0.482245 0.39291 0.410479 0.66676 0.353436 0.404107 0.162557 
0.927183 0.00306851 0.304802 0.217758 0.34364 0.364432 0.152047 
0.725096 0.585431 0.158032 0.326394 0.448309 0.32877 0.166477 
-0.00350556 -0.316459 0.535291 -0.783138 0.441302 0.356977 0.102667 
0.74118 0.145761 -0.600948 0.261281 0.389554 0.431627 0.130671 
0.134346 0.623336 0.26531 0.723197 0.339706 0.434426 0.147636 
0.0136548 0.42408 0.358971 0.83133 0.391435 0.444604 0.179959 
0.816938 -0.185908 -0.506793 0.203006 0.312716 0.417533 0.188116 
ITEM: TIMESTEP
400
ITEM: NUMBER OF ENTRIES
30
ITEM: BOX BOUNDS mm mm mm
0 0.6
0 0.6
0 0.5
ITEM: ENTRIES c_quat[1] c_quat[2] c_quat[3] c_quat[4] c_pos[1] c_pos[2] c_pos[3] 
-0.101441 -0.477409 0.534344 0.690121 0.153873 0.148237 0.16147 
0.357183 0.556353 -0.520289 -0.540547 0.181577 0.159446 0.157983 
0.508094 0.119848 0.133673 -0.842383 0.182661 0.187458 0.153336 
0.201105 -0.0188585 0.290561 0.935294 0.162804 0.244134 0.13359 
0.520443 0.735878 -0.15035 -0.406224 0.230889 0.145164 0.139547 
0.238813 0.268477 0.915626 -0.180328 0.26834 0.18221 0.149737 
0.122792 0.980488 -0.100851 0.115737 0.185237 0.286345 0.150578 
0.569067 -0.708019 -0.360041 -0.212701 0.249107 0.145392 0.15553 
0.67666 0.448921 -0.557448 -0.172776 0.220394 0.36686 0.161813 
0.906535 -0.404508 -0.0766814 -0.0932028 0.102265 0.361108 0.122651 
-0.484926 0.198085 0.85176 0.0106943 0.275024 0.331857 0.108043 
0.498004 0.611476 -0.614716 0.0146098 0.175411 0.332016 0.143362 
0.208003 0.878055 0.40658 -0.142991 0.103394 0.335705 0.149578 
0.539102 0.0889519 -0.807354 -0.22279 0.229883 0.44513 0.196987 
-0.45107 0.792137 -0.26184 -0.317008 0.248146 0.388188 0.188628 
-0.464109 0.651667 0.460251 0.384842 0.486915 0.185484 0.162155 
0.0971274 0.685403 0.518184 0.502269 0.422953 0.16277 0.18732 
-0.123482 0.68072 -0.650643 -0.313106 0.493093 0.214999 0.19539 
0.11601 0.686972 -0.389379 -0.602491 0.387245 0.219579 0.182497 
0.675656 0.504418 0.537453 -0.0140013 0.371164 0.153039 0.114921 
-0.105655 -0.16569 0.904523 0.378448 0.482482 0.281822 0.136987 
-0.260931 -0.293973 0.613827 -0.684625 0.42155 0.185066 0.148577 
0.482245 0.39291 0.410479 0.66676 0.353436 0.404107 0.162498 
0.927183 0.00306851 0.304802 0.217758 0.34364 0.364432 0.151988 
0.725096 0.585431 0.158032 0.326394 0.448309 0.32877 0.166418 
-0.00350556 -0.316459 0.535291 -0.783138 0.441302 0.356977 0.102608 
0.74118 0.145761 -0.600948 0.261281 0.389554 0.431627 0.130612 
0.134346 0.623336 0.26531 0.723197 0.339706 0.434426 0.147577 
0.0136548 0.42408 0.358971 0.83133 0.391435 0.444604 0.179901 
0.816938 -0.185908 -0.506793 0.203006 0.312716 0.417533 0.188057 
ITEM: TIMESTEP
600
ITEM: NUMBER OF ENTRIES
30
ITEM: BOX BOUNDS mm mm mm
0 0.6
0 0.6
0 0.5
ITEM: ENTRIES c_quat[1] c_quat[2] c_quat[3] c_quat[4] c_pos[1] c_pos[2] c_pos[3] 
-0.101441 -0.477409 0.534344 0.690121 0.153873 0.148237 0.161372 
0.357183 0.556353 -0.520289 -0.540547 0.181577 0.159446 0.157885 
0.508094 0.119848 0.133673 -0.842383 0.182661 0.187458 0.153238 
0.201105 -0.0188585 0.290561 0.935294 0.162804 0.244134 0.133492 
0.520443 0.735878 -0.15035 -0.406224 0.230889 0.145164 0.139449 
0.238813 0.268477 0.915626 -0.180328 0.26834 0.18221 0.149639 
0.122792 0.980488 -0.100851 0.115737 0.185237 0.286345 0.15048 
0.569067 -0.708019 -0.360041 -0.212701 0.249107 0.145392 0.155432 
0.67666 0.448921 -0.557448 -0.172776 0.220394 0.36686 0.161715 
0.906535 -0.404508 -0.0766814 -0.0932028 0.102265 0.361108 0.122553 
-0.484926 0.198085 0.85176 0.0106943 0.275024 0.331857 0.107945 
0.498004 0.611476 -0.614716 0.0146098 0.175411 0.332016 0.143264 
0.208003 0.878055 0.40658 -0.142991 0.103394 0.335705 0.14948 
0.539102 0.0889519 -0.807354 -0.22279 0.229883 0.44513 0.196889 
-0.45107 0.792137 -0.26184 -0.317008 0.248146 0.388188 0.18853 
-0.464109 0.651667 0.460251 0.384842 0.486915 0.185484 0.162057 
0.0971274 0.685403 0.518184 0.502269 0.422953 0.16277 0.187222 
-0.123482 0.68072 -0.650643 -0.313106 0.493093 0.214999 0.195292 
0.11601 0.686972 -0.389379 -0.602491 0.387245 0.219579 0.182399 
0.675656 0.504418 0.537453 -0.0140013 0.371164 0.153039 0.114823 
-0.105655 -0.16569 0.904523 0.378448 0.482482 0.281822 0.136889 
-0.260931 -0.293973 0.613827 -0.684625 0.42155 0.185066 0.148479 
0.482245 0.39291 0.410479 0.66676 0.353436 0.404107 0.1624 
0.927183 0.00306851 0.304802 0.217758 0.34364 0.364432 0.15189 
0.725096 0.585431 0.158032 0.326394 0.448309 0.32877 0.16632 
-0.00350556 -0.316459 0.535291 -0.783138 0.441302 0.356977 0.10251 
0.74118 0.145761 -0.600948 0.261281 0.389554 0.431627 0.130514 
0.134346 0.623336 0.26531 0.723197 0.339706 0.434426 0.147479 
0.0136548 0.42408 0.358971 0.83133 0.391435 0.444604 0.179803 
0.816938 -0.185908 -0.506793 0.203006 0.312716 0.417533 0.187959 
ITEM: TIMESTEP
800
ITEM: NUMBER OF ENTRIES
30
ITEM: BOX BOUNDS mm mm mm
0 0.6
0 0.6
0 0.5
ITEM: ENTRIES c_quat[1] c_quat[2] c_quat[3] c_quat[4] c_pos[1] c_pos[2] c_pos[3] 
-0.101441 -0.477409 0.534344 0.690121 0.153873 0.148237 0.161235 
0.357183 0.556353 -0.520289 -0.540547 0.181577 0.159446 0.157748 
0.508094 0.119848 0.133673 -0.842383 0.182661 0.187458 0.153101 
0.201105 -0.0188585 0.290561 0.935294 0.162804 0.244134 0.133355 
0.520443 0.735878 -0.15035 -0.406224 0.230889 0.145164 0.139312 
0.238813 0.268477 0.915626 -0.180328 0.26834 0.18221 0.149502 
0.122792 0.980488 -0.100851 0.115737 0.185237 0.286345 0.150342 
0.569067 -0.708019 -0.360041 -0.212701 0.249107 0.145392 0.155295 
0.67666 0.448921 -0.557448 -0.172776 0.220394 0.36686 0.161577 
0.906535 -0.404508 -0.0766814 -0.0932028 0.102265 0.361108 0.122416 
-0.484926 0.198085 0.85176 0.0106943 0.275024 0.331857 0.107808 
0.498004 0.611476 -0.614716 0.0146098 0.175411 0.332016 0.143127 
0.208003 0.878055 0.40658 -0.142991 0.103394 0.335705 0.149342 
0.539102 0.0889519 -0.807354 -0.22279 0.229883 0.44513 0.196752 
-0.45107 0.792137 -0.26184 -0.317008 0.248146 0.388188 0.188393 
-0.464109 0.651667 0.460251 0.384842 0.486915 0.185484 0.16192 
0.0971274 0.685403 0.518184 0.502269 0.422953 0.16277 0.187084 
-0.123482 0.68072 -0.650643 -0.313106 0.493093 0.214999 0.195155 
0.11601 0.686972 -0.389379 -0.602491 0.387245 0.219579 0.182261 
0.675656 0.504418 0.537453 -0.0140013 0.371164 0.153039 0.114686 
-0.105655 -0.16569 0.904523 0.378448 0.482482 0.281822 0.136752 
-0.260931 -0.293973 0.613827 -0.684625 0.42155 0.185066 0.148342 
0.482245 0.39291 0.410479 0.66676 0.353436 0.404107 0.162263 
0.927183 0.00306851 0.304802 0.217758 0.34364 0.364432 0.151753 
0.725096 0.585431 0.158032 0.326394 0.448309 0.32877 0.166183 
-0.00350556 -0.316459 0.535291 -0.783138 0.441302 0.356977 0.102373 
0.74118 0.145761 -0.600948 0.261281 0.389554 0.431627 0.130377 
0.134346 0.623336 0.26531 0.723197 0.339706 0.434426 0.147342 
0.0136548 0.42408 0.358971 0.83133 0.391435 0.444604 0.179665 
0.816938 -0.185908 -0.506793 0.203006 0.312716 0.417533 0.187822 
ITEM: TIMESTEP
1000
ITEM: NUMBER OF ENTRIES
30
ITEM: BOX BOUNDS mm mm mm
0 0.6
0 0.6
0 0.5
ITEM: ENTRIES c_quat[1] c_quat[2] c_quat[3] c_quat[4] c_pos[1] c_pos[2] c_pos[3] 
-0.101441 -0.477409 0.534344 0.690121 0.153873 0.148237 0.161058 
0.357183 0.556353 -0.520289 -0.540547 0.181577 0.159446 0.157572 
0.508094 0.119848 0.133673 -0.842383 0.182661 0.187458 0.152924 
0.201105 -0.0188585 0.290561 0.935294 0.162804 0.244134 0.133178 
0.520443 0.735878 -0.15035 -0.406224 0.230889 0.145164 0.139135 
0.238813 0.268477 0.915626 -0.180328 0.26834 0.18221 0.149325 
0.122792 0.980488 -0.100851 0.115737 0.185237 0.286345 0.150166 
0.569067 -0.708019 -0.360041 -0.212701 0.249107 0.145392 0.155118 
0.67666 0.448921 -0.557448 -0.172776 0.220394 0.36686 0.161401 
0.906535 -0.404508 -0.0766814 -0.0932028 0.102265 0.361108 0.12224 
-0.484926 0.198085 0.85176 0.0106943 0.275024 0.331857 0.107632 
0.498004 0.611476 -0.614716 0.0146098 0.175411 0.332016 0.14295 
0.208003 0.878055 0.40658 -0.142991 0.103394 0.335705 0.149166 
0.539102 0.0889519 -0.807354 -0.22279 0.229883 0.44513 0.196575 
-0.45107 0.792137 -0.26184 -0.317008 0.248146 0.388188 0.188216 
-0.464109 0.651667 0.460251 0.384842 0.486915 0.185484 0.161744 
0.0971274 0.685403 0.518184 0.502269 0.422953 0.16277 0.186908 
-0.123482 0.68072 -0.650643 -0.313106 0.493093 0.214999 0.194979 
0.11601 0.686972 -0.389379 -0.602491 0.387245 0.219579 0.182085 
0.675656 0.504418 0.537453 -0.0140013 0.371164 0.153039 0.114509 
-0.105655 -0.16569 0.904523 0.378448 0.482482 0.281822 0.136576 
-0.260931 -0.293973 0.613827 -0.684625 0.42155 0.185066 0.148166 
0.482245 0.39291 0.410479 0.66676 0.353436 0.404107 0.162086 
0.927183 0.00306851 0.304802 0.217758 0.34364 0.364432 0.151576 
0.725096 0.585431 0.158032 0.326394 0.448309 0.32877 0.166006 
-0.00350556 -0.316459 0.535291 -0.783138 0.441302 0.356977 0.102196 
0.74118 0.145761 -0.600948 0.261281 0.389554 0.431627 0.130201 
0.134346 0.623336 0.26531 0.723197 0.339706 0.434426 0.147165 
0.0136548 0.42408 0.358971 0.83133 0.391435 0.444604 0.179489 
0.816938 -0.185908 -0.506793 0.203006 0.312716 0.417533 0.187645 
ITEM: TIMESTEP
1200
ITEM: NUMBER OF ENTRIES
30
ITEM: BOX BOUNDS mm mm mm
0 0.6
0 0.6
0 0.5
ITEM: ENTRIES c_quat[1] c_quat[2] c_quat[3] c_quat[4] c_pos[1] c_pos[2] c_pos[3] 
-0.101441 -0.477409 0.534344 0.690121 0.153873 0.148237 0.160842 
0.357183 0.556353 -0.520289 -0.540547 0.181577 0.159446 0.157356 
0.508094 0.119848 0.133673 -0.842383 0.182661 0.187458 0.152708 
0.201105 -0.0188585 0.290561 0.935294 0.162804 0.244134 0.132963 
0.520443 0.735878 -0.15035 -0.406224 0.230889 0.145164 0.13892 
0.238813 0.268477 0.915626 -0.180328 0.26834 0.18221 0.149109 
0.122792 0.980488 -0.100851 0.115737 0.185237 0.286345 0.14995 
0.569067 -0.708019 -0.360041 -0.212701 0.249107 0.145392 0.154903 
0.67666 0.448921 -0.557448 -0.172776 0.220394 0.36686 0.161185 
0.906535 -0.404508 -0.0766814 -0.0932028 0.102265 0.361108 0.122024 
-0.484926 0.198085 0.85176 0.0106943 0.275024 0.331857 0.107416 
0.498004 0.611476 -0.614716 0.0146098 0.175411 0.332016 0.142735 
0.208003 0.878055 0.40658 -0.142991 0.103394 0.335705 0.14895 
0.539102 0.0889519 -0.807354 -0.22279 0.229883 0.44513 0.196359 
-0.45107 0.792137 -0.26184 -0.317008 0.248146 0.388188 0.188 
-0.464109 0.651667 0.460251 0.384842 0.486915 0.185484 0.161528 
0.0971274 0.685403 0.518184 0.502269 0.422953 0.16277 0.186692 
-0.123482 0.68072 -0.650643 -0.313106 0.493093 0.214999 0.194763 
0.11601 0.686972 -0.389379 -0.602491 0.387245 0.219579 0.181869 
0.675656 0.504418 0.537453 -0.0140013 0.371164 0.153039 0.114293 
-0.105655 -0.16569 0.904523 0.378448 0.482482 0.281822 0.13636 
-0.260931 -0.293973 0.613827 -0.684625 0.42155 0.185066 0.14795 
0.482245 0.39291 0.410479 0.66676 0.353436 0.404107 0.161871 
0.927183 0.00306851 0.304802 0.217758 0.34364 0.364432 0.15136 
0.725096 0.585431 0.158032 0.326394 0.448309 0.32877 0.16579 
-0.00350556 -0.316459 0.535291 -0.783138 0.441302 0.356977 0.10198 
0.74118 0.145761 -0.600948 0.261281 0.389554 0.431627 0.129985 
0.134346 0.623336 0.26531 0.723197 0.339706 0.434426 0.14695 
0.0136548 0.42408 0.358971 0.83133 0.391435 0.444604 0.179273 
0.816938 -0.185908 -0.506793 0.203006 0.312716 0.417533 0.18743 
ITEM: TIMESTEP
1400
ITEM: NUMBER OF ENTRIES
30
ITEM: BOX BOUNDS mm mm mm
0 0.6
0 0.6
0 0.5
ITEM: ENTRIES c_quat[1] c_quat[2] c_quat[3] c_quat[4] c_pos[1] c_pos[2] c_pos[3] 
-0.101441 -0.477409 0.534344 0.690121 0.153873 0.148237 0.160588 
0.357183 0.556353 -0.520289 -0.540547 0.181577 0.159446 0.157101 
0.508094 0.119848 0.133673 -0.842383 0.182661 0.187458 0.152453 
0.201105 -0.0188585 0.290561 0.935294 0.162804 0.244134 0.132708 
0.520443 0.735878 -0.15035 -0.406224 0.230889 0.145164 0.138665 
0.238813 0.268477 0.915626 -0.180328 0.26834 0.18221 0.148854 
0.122792 0.980488 -0.100851 0.115737 0.185237 0.286345 0.149695 
0.569067 -0.708019 -0.360041 -0.212701 0.249107 0.145392 0.154648 
0.67666 0.448921 -0.557448 -0.172776 0.220394 0.36686 0.16093 
0.906535 -0.404508 -0.0766814 -0.0932028 0.102265 0.361108 0.121769 
-0.484926 0.198085 0.85176 0.0106943 0.275024 0.331857 0.107161 
0.498004 0.611476 -0.614716 0.0146098 0.175411 0.332016 0.14248 
0.208003 0.878055 0.40658 -0.142991 0.103394 0.335705 0.148695 
0.539102 0.0889519 -0.807354 -0.22279 0.229883 0.44513 0.196104 
-0.45107 0.792137 -0.26184 -0.317008 0.248146 0.388188 0.187745 
-0.464109 0.651667 0.460251 0.384842 0.486915 0.185484 0.161273 
0.0971274 0.685403 0.518184 0.502269 0.422953 0.16277 0.186437 
-0.123482 0.68072 -0.650643 -0.313106 0.493093 0.214999 0.194508 
0.11601 0.686972 -0.389379 -0.602491 0.387245 0.219579 0.181614 
0.675656 0.504418 0.537453 -0.0140013 0.371164 0.153039 0.114038 
-0.105655 -0.16569 0.904523 0.378448 0.482482 0.281822 0.136105 
-0.260931 -0.293973 0.613827 -0.684625 0.42155 0.185066 0.147695 
0.482245 0.39291 0.410479 0.66676 0.353436 0.404107 0.161616 
0.927183 0.00306851 0.304802 0.217758 0.34364 0.364432 0.151105 
0.725096 0.585431 0.158032 0.326394 0.448309 0.32877 0.165535 
-0.00350556 -0.316459 0.535291 -0.783138 0.441302 0.356977 0.101725 
0.74118 0.145761 -0.600948 0.261281 0.389554 0.431627 0.12973 
0.134346 0.623336 0.26531 0.723197 0.339706 0.434426 0.146695 
0.0136548 0.42408 0.358971 0.83133 0.391435 0.444604 0.179018 
0.816938 -0.185908 -0.506793 0.203006 0.312716 0.417533 0.187175 
ITEM: TIMESTEP
1600
ITEM: NUMBER OF ENTRIES
30
ITEM: BOX BOUNDS mm mm mm
0 0.6
0 0.6
0 0.5
ITEM: ENTRIES c_quat[1] c_quat[2] c_quat[3] c_quat[4] c_pos[1] c_pos[2] c_pos[3] 
-0.101441 -0.477409 0.534344 0.690121 0.153873 0.148237 0.160293 
0.357183 0.556353 -0.520289 -0.540547 0.181577 0.159446 0.156807 
0.508094 0.119848 0.133673 -0.842383 0.182661 0.187458 0.152159 
0.201105 -0.0188585 0.290561 0.935294 0.162804 0.244134 0.132414 
0.520443 0.735878 -0.15035 -0.406224 0.230889 0.145164 0.138371 
0.238813 0.268477 0.915626 -0.180328 0.26834 0.18221 0.14856 
0.122792 0.980488 -0.100851 0.115737 0.185237 0.286345 0.149401 
0.569067 -0.708019 -0.360041 -0.212701 0.249107 0.145392 0.154353 
0.67666 0.448921 -0.557448 -0.172776 0.220394 0.36686 0.160636 
0.906535 -0.404508 -0.0766814 -0.0932028 0.102265 0.361108 0.121475 
-0.484926 0.198085 0.85176 0.0106943 0.275024 0.331857 0.106867 
0.498004 0.611476 -0.614716 0.0146098 0.175411 0.332016 0.142185 
0.208003 0.878055 0.40658 -0.142991 0.103394 0.335705 0.148401 
0.539102 0.0889519 -0.807354 -0.22279 0.229883 0.44513 0.19581 
-0.45107 0.792137 -0.26184 -0.317008 0.248146 0.388188 0.187451 
-0.464109 0.651667 0.460251 0.384842 0.486915 0.185484 0.160979 
0.0971274 0.685403 0.518184 0.502269 0.422953 0.16277 0.186143 
-0.123482 0.68072 -0.650643 -0.313106 0.493093 0.214999 0.194214 
0.11601 0.686972 -0.389379 -0.602491 0.387245 0.219579 0.18132 
0.675656 0.504418 0.537453 -0.0140013 0.371164 0.153039 0.113744 
-0.105655 -0.16569 0.904523 0.378448 0.482482 0.281822 0.135811 
-0.260931 -0.293973 0.613827 -0.684625 0.42155 0.185066 0.147401 
0.482245 0.39291 0.410479 0.66676 0.353436 0.404107 0.161322 
0.927183 0.00306851 0.304802 0.217758 0.34364 0.364432 0.150811 
0.725096 0.585431 0.158032 0.326394 0.448309 0.32877 0.165241 
-0.00350556 -0.316459 0.535291 -0.783138 0.441302 0.356977 0.101431 
0.74118 0.145761 -0.600948 0.261281 0.389554 0.431627 0.129436 
0.134346 0.623336 0.26531 0.723197 0.339706 0.434426 0.146401 
0.0136548 0.42408 0.358971 0.83133 0.391435 0.444604 0.178724 
0.816938 -0.185908 -0.506793 0.203006 0.312716 0.417533 0.186881 
ITEM: TIMESTEP
1800
ITEM: NUMBER OF ENTRIES
30
ITEM: BOX BOUNDS mm mm mm
0 0.6
0 0.6
0 0.5
ITEM: ENTRIES c_quat[1] c_quat[2] c_quat[3] c_quat[4] c_pos[1] c_pos[2] c_pos[3] 
-0.101441 -0.477409 0.534344 0.690121 0.153873 0.148237 0.15996 
0.357183 0.556353 -0.520289 -0.540547 0.181577 0.159446 0.156473 
0.508094 0.119848 0.133673 -0.842383 0.182661 0.187458 0.151826 
0.201105 -0.0188585 0.290561 0.935294 0.162804 0.244134 0.13208 
0.520443 0.735878 -0.15035 -0.406224 0.230889 0.145164 0.138037 
0.238813 0.268477 0.915626 -0.180328 0.26834 0.18221 0.148227 
0.122792 0.980488 -0.100851 0.115737 0.185237 0.286345 0.149068 
0.569067 -0.708019 -0.360041 -0.212701 0.249107 0.145392 0.15402 
0.67666 0.448921 -0.557448 -0.172776 0.220394 0.36686 0.160303 
0.906535 -0.404508 -0.0766814 -0.0932028 0.102265 0.361108 0.121141 
-0.484926 0.198085 0.85176 0.0106943 0.275024 0.331857 0.106533 
0.498004 0.611476 -0.614716 0.0146098 0.175411 0.332016 0.141852 
0.208003 0.878055 0.40658 -0.142991 0.103394 0.335705 0.148067 
0.539102 0.0889519 -0.807354 -0.22279 0.229883 0.44513 0.195477 
-0.45107 0.792137 -0.26184 -0.317008 0.248146 0.388188 0.187118 
-0.464109 0.651667 0.460251 0.384842 0.486915 0.185484 0.160645 
0.0971274 0.685403 0.518184 0.502269 0.422953 0.16277 0.18581 
-0.123482 0.68072 -0.650643 -0.313106 0.493093 0.214999 0.19388 
0.11601 0.686972 -0.389379 -0.602491 0.387245 0.219579 0.180987 
0.675656 0.504418 0.537453 -0.0140013 0.371164 0.153039 0.113411 
-0.105655 -0.16569 0.904523 0.378448 0.482482 0.281822 0.135477 
-0.260931 -0.293973 0.613827 -0.684625 0.42155 0.185066 0.147067 
0.482245 0.39291 0.410479 0.66676 0.353436 0.404107 0.160988 
0.927183 0.00306851 0.304802 0.217758 0.34364 0.364432 0.150478 
0.725096 0.585431 0.158032 0.326394 0.448309 0.32877 0.164908 
-0.00350556 -0.316459 0.535291 -0.783138 0.441302 0.356977 0.101098 
0.74118 0.145761 -0.600948 0.261281 0.389554 0.431627 0.129102 
0.134346 0.623336 0.26531 0.723197 0.339706 0.434426 0.146067 
0.0136548 0.42408 0.358971 0.83133 0.391435 0.444604 0.178391 
0.816938 -0.185908 -0.506793 0.203006 0.312716 0.417533 0.186547 
ITEM: TIMESTEP
2000
ITEM: NUMBER OF ENTRIES
30
ITEM: BOX BOUNDS mm mm mm
0 0.6
0 0.6
0 0.5
ITEM: ENTRIES c_quat[1] c_quat[2] c_quat[3] c_quat[4] c_pos[1] c_pos[2] c_pos[3] 
-0.101441 -0.477409 0.534344 0.690121 0.153873 0.148237 0.159587 
0.357183 0.556353 -0.520289 -0.540547 0.181577 0.159446 0.156101 
0.508094 0.119848 0.133673 -0.842383 0.182661 0.187458 0.151453 
0.201105 -0.0188585 0.290561 0.935294 0.162804 0.244134 0.131707 
0.520443 0.735878 -0.15035 -0.406224 0.230889 0.145164 0.137664 
0.238813 0.268477 0.915626 -0.180328 0.26834 0.18221 0.147854 
0.122792 0.980488 -0.100851 0.115737 0.185237 0.286345 0.148695 
0.569067 -0.708019 -0.360041 -0.212701 0.249107 0.145392 0.153647 
0.67666 0.448921 -0.557448 -0.172776 0.220394 0.36686 0.15993 
0.906535 -0.404508 -0.0766814 -0.0932028 0.102265 0.361108 0.120769 
-0.484926 0.198085 0.85176 0.0106943 0.275024 0.331857 0.106161 
0.498004 0.611476 -0.614716 0.0146098 0.175411 0.332016 0.141479 
0.208003 0.878055 0.40658 -0.142991 0.103394 0.335705 0.147695 
0.539102 0.0889519 -0.807354 -0.22279 0.229883 0.44513 0.195104 
-0.45107 0.792137 -0.26184 -0.317008 0.248146 0.388188 0.186745 
-0.464109 0.651667 0.460251 0.384842 0.486915 0.185484 0.160273 
0.0971274 0.685403 0.518184 0.502269 0.422953 0.16277 0.185437 
-0.123482 0.68072 -0.650643 -0.313106 0.493093 0.214999 0.193508 
0.11601 0.686972 -0.389379 -0.602491 0.387245 0.219579 0.180614 
0.675656 0.504418 0.537453 -0.0140013 0.371164 0.153039 0.113038 
-0.105655 -0.16569 0.904523 0.378448 0.482482 0.281822 0.135105 
-0.260931 -0.293973 0.613827 -0.684625 0.42155 0.185066 0.146695 
0.482245 0.39291 0.410479 0.66676 0.353436 0.404107 0.160615 
0.927183 0.00306851 0.304802 0.217758 0.34364 0.364432 0.150105 
0.725096 0.585431 0.158032 0.326394 0.448309 0.32877 0.164535 
-0.00350556 -0.316459 0.535291 -0.783138 0.441302 0.356977 0.100725 
0.74118 0.145761 -0.600948 0.261281 0.389554 0.431627 0.12873 
0.134346 0.623336 0.26531 0.723197 0.339706 0.434426 0.145694 
0.0136548 0.42408 0.358971 0.83133 0.391435 0.444604 0.178018 
0.816938 -0.185908 -0.506793 0.203006 0.312716 0.417533 0.186174 
ITEM: TIMESTEP
2200
ITEM: NUMBER OF ENTRIES
30
ITEM: BOX BOUNDS mm mm mm
0 0.6
0 0.6
0 0.5
ITEM: ENTRIES c_quat[1] c_quat[2] c_quat[3] c_quat[4] c_pos[1] c_pos[2] c_pos[3] 
-0.101441 -0.477409 0.534344 0.690121 0.153873 0.148237 0.159175 
0.357183 0.556353 -0.520289 -0.540547 0.181577 0.159446 0.155689 
0.508094 0.119848 0.133673 -0.842383 0.182661 0.187458 0.151041 
0.201105 -0.0188585 0.290561 0.935294 0.162804 0.244134 0.131295 
0.520443 0.735878 -0.15035 -0.406224 0.230889 0.145164 0.137252 
0.238813 0.268477 0.915626 -0.180328 0.26834 0.18221 0.147442 
0.122792 0.980488 -0.100851 0.115737 0.185237 0.286345 0.148283 
0.569067 -0.708019 -0.360041 -0.212701 0.249107 0.145392 0.153235 
0.67666 0.448921 -0.557448 -0.172776 0.220394 0.36686 0.159518 
0.906535 -0.404508 -0.0766814 -0.0932028 0.102265 0.361108 0.120357 
-0.484926 0.198085 0.85176 0.0106943 0.275024 0.331857 0.105749 
0.498004 0.611476 -0.614716 0.0146098 0.175411 0.332016 0.141067 
0.208003 0.878055 0.40658 -0.142991 0.103394 0.335705 0.147283 
0.539102 0.0889519 -0.807354 -0.22279 0.229883 0.44513 0.194692 
-0.45107 0.792137 -0.26184 -0.317008 0.248146 0.388188 0.186333 
-0.464109 0.651667 0.460251 0.384842 0.486915 0.185484 0.159861 
0.0971274 0.685403 0.518184 0.502269 0.422953 0.16277 0.185025 
-0.123482 0.68072 -0.650643 -0.313106 0.493093 0.214999 0.193096 
0.11601 0.686972 -0.389379 -0.602491 0.387245 0.219579 0.180202 
0.675656 0.504418 0.537453 -0.0140013 0.371164 0.153039 0.112626 
-0.105655 -0.16569 0.904523 0.378448 0.482482 0.281822 0.134693 
-0.260931 -0.293973 0.613827 -0.684625 0.42155 0.185066 0.146283 
0.482245 0.39291 0.410479 0.66676 0.353436 0.404107 0.160203 
0.927183 0.00306851 0.304802 0.217758 0.34364 0.364432 0.149693 
0.725096 0.585431 0.158032 0.326394 0.448309 0.32877 0.164123 
-0.00350556 -0.316459 0.535291 -0.783138 0.441302 0.356977 0.100313 
0.74118 0.145761 -0.600948 0.261281 0.389554 0.431627 0.128318 
0.134346 0.623336 0.26531 0.723197 0.339706 0.434426 0.145283 
0.0136548 0.42408 0.358971 0.83133 0.391435 0.444604 0.177606 
0.816938 -0.185908 -0.506793 0.203006 0.312716 0.417533 0.185763 
ITEM: TIMESTEP
2400
ITEM: NUMBER OF ENTRIES
30
ITEM: BOX BOUNDS mm mm mm
0 0.6
0 0.6
0 0.5
ITEM: ENTRIES c_quat[1] c_quat[2] c_quat[3] c_quat[4] c_pos[1] c_pos[2] c_pos[3] 
-0.101441 -0.477409 0.534344 0.690121 0.153873 0.148237 0.158724 
0.357183 0.556353 -0.520289 -0.540547 0.181577 0.159446 0.155237 
0.508094 0.119848 0.133673 -0.842383 0.182661 0.187458 0.15059 
0.201105 -0.0188585 0.290561 0.935294 0.162804 0.244134 0.130844 
0.520443 0.735878 -0.15035 -0.406224 0.230889 0.145164 0.136801 
0.238813 0.268477 0.915626 -0.180328 0.26834 0.18221 0.146991 
0.122792 0.980488 -0.100851 0.115737 0.185237 0.286345 0.147832 
0.569067 -0.708019 -0.360041 -0.212701 0.249107 0.145392 0.152784 
0.67666 0.448921 -0.557448 -0.172776 0.220394 0.36686 0.159067 
0.906535 -0.404508 -0.0766814 -0.0932028 0.102265 0.361108 0.119906 
-0.484926 0.198085 0.85176 0.0106943 0.275024 0.331857 0.105298 
0.498004 0.611476 -0.614716 0.0146098 0.175411 0.332016 0.140616 
0.208003 0.878055 0.40658 -0.142991 0.103394 0.335705 0.146832 
0.539102 0.0889519 -0.807354 -0.22279 0.229883 0.44513 0.194241 
-0.45107 0.792137 -0.26184 -0.317008 0.248146 0.388188 0.185882 
-0.464109 0.651667 0.460251 0.384842 0.486915 0.185484 0.15941 
0.0971274 0.685403 0.518184 0.502269 0.422953 0.16277 0.184574 
-0.123482 0.68072 -0.650643 -0.313106 0.493093 0.214999 0.192645 
0.11601 0.686972 -0.389379 -0.602491 0.387245 0.219579 0.179751 
0.675656 0.504418 0.537453 -0.0140013 0.371164 0.153039 0.112175 
-0.105655 -0.16569 0.904523 0.378448 0.482482 0.281822 0.134241 
-0.260931 -0.293973 0.613827 -0.684625 0.42155 0.185066 0.145832 
0.482245 0.39291 0.410479 0.66676 0.353436 0.404107 0.159752 
0.927183 0.00306851 0.304802 0.217758 0.34364 0.364432 0.149242 
0.725096 0.585431 0.158032 0.326394 0.448309 0.32877 0.163672 
-0.00350556 -0.316459 0.535291 -0.783138 0.441302 0.356977 0.099862 
0.74118 0.145761 -0.600948 0.261281 0.389554 0.431627 0.127867 
0.134346 0.623336 0.26531 0.723197 0.339706 0.434426 0.144831 
0.0136548 0.42408 0.358971 0.83133 0.391435 0.444604 0.177155 
0.816938 -0.185908 -0.506793 0.203006 0.312716 0.417533 0.185311 
ITEM: TIMESTEP
2600
ITEM: NUMBER OF ENTRIES
31
ITEM: BOX BOUNDS mm mm mm
0 0.6
0 0.6
0 0.5
ITEM: ENTRIES c_quat[1] c_quat[2] c_quat[3] c_quat[4] c_pos[1] c_pos[2] c_pos[3] 
-0.101441 -0.477409 0.534344 0.690121 0.153873 0.148237 0.158234 
0.357183 0.556353 -0.520289 -0.540547 0.181577 0.159446 0.154747 
0.508094 0.119848 0.133673 -0.842383 0.182661 0.187458 0.1501 
0.201105 -0.0188585 0.290561 0.935294 0.162804 0.244134 0.130354 
0.520443 0.735878 -0.15035 -0.406224 0.230889 0.145164 0.136311 
0.238813 0.268477 0.915626 -0.180328 0.26834 0.18221 0.146501 
0.122792 0.980488 -0.100851 0.115737 0.185237 0.286345 0.147341 
0.569067 -0.708019 -0.360041 -0.212701 0.249107 0.145392 0.152294 
0.67666 0.448921 -0.557448 -0.172776 0.220394 0.36686 0.158576 
0.906535 -0.404508 -0.0766814 -0.0932028 0.102265 0.361108 0.119415 
-0.484926 0.198085 0.85176 0.0106943 0.275024 0.331857 0.104807 
0.498004 0.611476 -0.614716 0.0146098 0.175411 0.332016 0.140126 
0.208003 0.878055 0.40658 -0.142991 0.103394 0.335705 0.146341 
0.539102 0.0889519 -0.807354 -0.22279 0.229883 0.44513 0.193751 
-0.45107 0.792137 -0.26184 -0.317008 0.248146 0.388188 0.185392 
-0.464109 0.651667 0.460251 0.384842 0.486915 0.185484 0.158919 
0.0971274 0.685403 0.518184 0.502269 0.422953 0.16277 0.184083 
-0.123482 0.68072 -0.650643 -0.313106 0.493093 0.214999 0.192154 
0.11601 0.686972 -0.389379 -0.602491 0.387245 0.219579 0.17926 
0.675656 0.504418 0.537453 -0.0140013 0.371164 0.153039 0.111685 
-0.105655 -0.16569 0.904523 0.378448 0.482482 0.281822 0.133751 
-0.260931 -0.293973 0.613827 -0.684625 0.42155 0.185066 0.145341 
-0.222455 0.773858 -0.441077 0.396369 0.379652 0.207374 0.118012 
0.482245 0.39291 0.410479 0.66676 0.353436 0.404107 0.159262 
0.927183 0.00306851 0.304802 0.217758 0.34364 0.364432 0.148752 
0.725096 0.585431 0.158032 0.326394 0.448309 0.32877 0.163182 
-0.00350556 -0.316459 0.535291 -0.783138 0.441302 0.356977 0.0993716 
0.74118 0.145761 -0.600948 0.261281 0.389554 0.431627 0.127376 
0.134346 0.623336 0.26531 0.723197 0.339706 0.434426 0.144341 
0.0136548 0.42408 0.358971 0.83133 0.391435 0.444604 0.176664 
0.816938 -0.185908 -0.506793 0.203006 0.312716 0.417533 0.184821 
ITEM: TIMESTEP
2800
ITEM: NUMBER OF ENTRIES
31
ITEM: BOX BOUNDS mm mm mm
0 0.6
0 0.6
0 0.5
ITEM: ENTRIES c_quat[1] c_quat[2] c_quat[3] c_quat[4] c_pos[1] c_pos[2] c_pos[3] 
-0.101441 -0.477409 0.534344 0.690121 0.153873 0.148237 0.157704 
0.357183 0.556353 -0.520289 -0.540547 0.181577 0.159446 0.154217 
0.508094 0.119848 0.133673 -0.842383 0.182661 0.187458 0.14957 
0.201105 -0.0188585 0.290561 0.935294 0.162804 0.244134 0.129824 
0.520443 0.735878 -0.15035 -0.406224 0.230889 0.145164 0.135781 
0.238813 0.268477 0.915626 -0.180328 0.26834 0.18221 0.145971 
0.122792 0.980488 -0.100851 0.115737 0.185237 0.286345 0.146812 
0.569067 -0.708019 -0.360041 -0.212701 0.249107 0.145392 0.151764 
0.67666 0.448921 -0.557448 -0.172776 0.220394 0.36686 0.158047 
0.906535 -0.404508 -0.0766814 -0.0932028 0.102265 0.361108 0.118886 
-0.484926 0.198085 0.85176 0.0106943 0.275024 0.331857 0.104277 
0.498004 0.611476 -0.614716 0.0146098 0.175411 0.332016 0.139596 
0.208003 0.878055 0.40658 -0.142991 0.103394 0.335705 0.145812 
0.539102 0.0889519 -0.807354 -0.22279 0.229883 0.44513 0.193221 
-0.45107 0.792137 -0.26184 -0.317008 0.248146 0.388188 0.184862 
-0.464109 0.651667 0.460251 0.384842 0.486915 0.185484 0.15839 
0.0971274 0.685403 0.518184 0.502269 0.422953 0.16277 0.183554 
-0.123482 0.68072 -0.650643 -0.313106 0.493093 0.214999 0.191625 
0.11601 0.686972 -0.389379 -0.602491 0.387245 0.219579 0.178731 
0.675656 0.504418 0.537453 -0.0140013 0.371164 0.153039 0.111155 
-0.105655 -0.16569 0.904523 0.378448 0.482482 0.281822 0.133221 
-0.260931 -0.293973 0.613827 -0.684625 0.42155 0.185066 0.144811 
-0.222455 0.773858 -0.441077 0.396369 0.379652 0.207374 0.117953 
0.482245 0.39291 0.410479 0.66676 0.353436 0.404107 0.158732 
0.927183 0.00306851 0.304802 0.217758 0.34364 0.364432 0.148222 
0.725096 0.585431 0.158032 0.326394 0.448309 0.32877 0.162652 
-0.00350556 -0.316459 0.535291 -0.783138 0.441302 0.356977 0.0988419 
0.74118 0.145761 -0.600948 0.261281 0.389554 0.431627 0.126847 
0.134346 0.623336 0.26531 0.723197 0.339706 0.434426 0.143811 
0.0136548 0.42408 0.358971 0.83133 0.391435 0.444604 0.176135 
0.816938 -0.185908 -0.506793 0.203006 0.312716 0.417533 0.184291 
ITEM: TIMESTEP
3000
ITEM: NUMBER OF ENTRIES
31
ITEM: BOX BOUNDS mm mm mm
0 0.6
0 0.6
0 0.5