ITEM: TIMESTEP
0
ITEM: NUMBER OF ATOMS
0
ITEM: BOX BOUNDS mm ff mm
-7.11219 2
0 1
-0.011213 0.141213
ITEM: ATOMS id_multisphere xs ys zs 
ITEM: TIMESTEP
200
ITEM: NUMBER OF ATOMS
700
ITEM: BOX BOUNDS mm ff mm
-7.11219 2
0 1
-0.011213 0.141213
ITEM: ATOMS id_multisphere xs ys zs 
1 0.865723 0.352132 0.537832 
1 0.865975 0.352499 0.540178 
1 0.866054 0.353596 0.552937 
1 0.865882 0.354327 0.56335 
1 0.865631 0.353961 0.561004 
1 0.865551 0.352863 0.548245 
1 0.865803 0.35323 0.550591 
1 0.865741 0.349971 0.545431 
1 0.865993 0.350337 0.547777 
1 0.866072 0.351434 0.560536 
1 0.8659 0.352165 0.570949 
1 0.865649 0.351799 0.568603 
1 0.865569 0.350702 0.555844 
1 0.865821 0.351068 0.55819 
1 0.865759 0.347809 0.55303 
1 0.866011 0.348175 0.555376 
1 0.86609 0.349272 0.568135 
1 0.865918 0.350003 0.578548 
1 0.865667 0.349637 0.576202 
1 0.865587 0.34854 0.563443 
1 0.865839 0.348906 0.565789 
1 0.865777 0.345647 0.560629 
1 0.866029 0.346014 0.562975 
1 0.866108 0.347111 0.575734 
1 0.865936 0.347842 0.586147 
1 0.865685 0.347475 0.5838 
1 0.865605 0.346378 0.571042 
1 0.865857 0.346744 0.573388 
1 0.865796 0.343486 0.568228 
1 0.866047 0.343852 0.570574 
1 0.866126 0.344949 0.583333 
1 0.865954 0.34568 0.593745 
1 0.865703 0.345314 0.591399 
1 0.865624 0.344216 0.578641 
1 0.865875 0.344583 0.580987 
1 0.865814 0.341324 0.575827 
1 0.866065 0.34169 0.578173 
1 0.866144 0.342787 0.590932 
1 0.865972 0.343518 0.601344 
1 0.865721 0.343152 0.598998 
1 0.865642 0.342055 0.586239 
1 0.865893 0.342421 0.588586 
1 0.865832 0.339162 0.583426 
1 0.866083 0.339528 0.585772 
1 0.866163 0.340626 0.598531 
1 0.865991 0.341357 0.608943 
1 0.865739 0.34099 0.606597 
1 0.86566 0.339893 0.593838 
1 0.865911 0.340259 0.596184 
1 0.86585 0.337 0.591025 
1 0.866101 0.337367 0.593371 
1 0.866181 0.338464 0.606129 
1 0.866009 0.339195 0.616542 
1 0.865757 0.338829 0.614196 
1 0.865678 0.337731 0.601437 
1 0.865929 0.338098 0.603783 
1 0.865868 0.334839 0.598623 
1 0.866119 0.335205 0.60097 
1 0.866199 0.336302 0.613728 
1 0.866027 0.337033 0.624141 
1 0.865775 0.336667 0.621795 
1 0.865696 0.33557 0.609036 
1 0.865947 0.335936 0.611382 
1 0.865886 0.332677 0.606222 
1 0.866137 0.333043 0.608568 
1 0.866217 0.33414 0.621327 
1 0.866045 0.334871 0.63174 
1 0.865793 0.334505 0.629394 
1 0.865714 0.333408 0.616635 
1 0.865965 0.333774 0.618981 
2 0.877118 0.235399 0.234228 
2 0.877147 0.236947 0.245669 
2 0.876969 0.238596 0.248096 
2 0.87676 0.238698 0.239081 
2 0.87673 0.237151 0.227639 
2 0.876909 0.235501 0.225212 
2 0.876939 0.237049 0.236654 
2 0.876987 0.233884 0.244258 
2 0.877017 0.235432 0.2557 
2 0.876838 0.237081 0.258126 
2 0.87663 0.237183 0.249111 
2 0.8766 0.235636 0.23767 
2 0.876779 0.233986 0.235243 
2 0.876809 0.235534 0.246685 
2 0.876857 0.232369 0.254289 
2 0.876887 0.233917 0.265731 
2 0.876708 0.235566 0.268157 
2 0.8765 0.235668 0.259142 
2 0.87647 0.234121 0.2477 
2 0.876648 0.232471 0.245274 
2 0.876678 0.234019 0.256716 
2 0.876727 0.230854 0.26432 
2 0.876757 0.232402 0.275761 
2 0.876578 0.234051 0.278188 
2 0.876369 0.234153 0.269173 
2 0.876339 0.232606 0.257731 
2 0.876518 0.230956 0.255305 
2 0.876548 0.232504 0.266746 
2 0.876597 0.229339 0.274351 
2 0.876626 0.230887 0.285792 
2 0.876448 0.232536 0.288219 
2 0.876239 0.232638 0.279204 
2 0.876209 0.231091 0.267762 
2 0.876388 0.229441 0.265335 
2 0.876418 0.230989 0.276777 
2 0.876466 0.227824 0.284381 
2 0.876496 0.229372 0.295823 
2 0.876317 0.231021 0.298249 
2 0.876109 0.231123 0.289234 
2 0.876079 0.229576 0.277793 
2 0.876258 0.227926 0.275366 
2 0.876288 0.229474 0.286808 
2 0.876336 0.226309 0.294412 
2 0.876366 0.227857 0.305854 
2 0.876187 0.229506 0.30828 
2 0.875979 0.229608 0.299265 
2 0.875949 0.228061 0.287823 
2 0.876127 0.226411 0.285397 
2 0.876157 0.227959 0.296838 
2 0.876206 0.224794 0.304443 
2 0.876236 0.226342 0.315884 
2 0.876057 0.227991 0.318311 
2 0.875848 0.228093 0.309296 
2 0.875818 0.226545 0.297854 
2 0.875997 0.224896 0.295428 
2 0.876027 0.226444 0.306869 
2 0.876075 0.223279 0.314473 
2 0.876105 0.224827 0.325915 
2 0.875927 0.226476 0.328342 
2 0.875718 0.226578 0.319326 
2 0.875688 0.22503 0.307885 
2 0.875867 0.223381 0.305458 
2 0.875897 0.224929 0.3169 
2 0.875945 0.221764 0.324504 
2 0.875975 0.223312 0.335946 
2 0.875796 0.224961 0.338372 
2 0.875588 0.225063 0.329357 
2 0.875558 0.223515 0.317916 
2 0.875737 0.221866 0.315489 
2 0.875766 0.223414 0.326931 
3 0.862949 0.390343 0.427029 
3 0.863069 0.388953 0.416884 
3 0.863173 0.386927 0.42153 
3 0.863158 0.38629 0.436322 
3 0.863038 0.387679 0.446467 
3 0.862934 0.389705 0.441821 
3 0.863054 0.388316 0.431675 
3 0.862717 0.389189 0.42402 
3 0.862836 0.387799 0.413875 
3 0.86294 0.385773 0.418522 
3 0.862925 0.385136 0.433314 
3 0.862805 0.386525 0.443459 
3 0.862701 0.388552 0.438812 
3 0.862821 0.387162 0.428667 
3 0.862484 0.388035 0.421012 
3 0.862603 0.386646 0.410866 
3 0.862708 0.384619 0.415513 
3 0.862692 0.383982 0.430305 
3 0.862573 0.385371 0.44045 
3 0.862468 0.387398 0.435803 
3 0.862588 0.386008 0.425658 
3 0.862251 0.386881 0.418003 
3 0.862371 0.385492 0.407858 
3 0.862475 0.383465 0.412505 
3 0.862459 0.382828 0.427296 
3 0.86234 0.384217 0.437442 
3 0.862236 0.386244 0.432795 
3 0.862355 0.384855 0.42265 
3 0.862018 0.385727 0.414994 
3 0.862138 0.384338 0.404849 
3 0.862242 0.382311 0.409496 
3 0.862227 0.381674 0.424288 
3 0.862107 0.383063 0.434433 
3 0.862003 0.38509 0.429786 
3 0.862122 0.383701 0.419641 
3 0.861785 0.384573 0.411986 
3 0.861905 0.383184 0.401841 
3 0.862009 0.381158 0.406487 
3 0.861994 0.38052 0.421279 
3 0.861874 0.38191 0.431424 
3 0.86177 0.383936 0.426778 
3 0.86189 0.382547 0.416633 
3 0.861553 0.383419 0.408977 
3 0.861672 0.38203 0.398832 
3 0.861776 0.380004 0.403479 
3 0.861761 0.379366 0.418271 
3 0.861641 0.380756 0.428416 
3 0.861537 0.382782 0.423769 
3 0.861657 0.381393 0.413624 
3 0.86132 0.382266 0.405969 
3 0.861439 0.380876 0.395823 
3 0.861544 0.37885 0.40047 
3 0.861528 0.378213 0.415262 
3 0.861409 0.379602 0.425407 
3 0.861304 0.381628 0.42076 
3 0.861424 0.380239 0.410615 
3 0.861087 0.381112 0.40296 
3 0.861207 0.379722 0.392815 
3 0.861311 0.377696 0.397462 
3 0.861295 0.377059 0.412254 
3 0.861176 0.378448 0.422399 
3 0.861072 0.380475 0.417752 
3 0.861191 0.379085 0.407607 
3 0.860854 0.379958 0.399951 
3 0.860974 0.378569 0.389806 
3 0.861078 0.376542 0.394453 
3 0.861063 0.375905 0.409245 
3 0.860943 0.377294 0.41939 
3 0.860839 0.379321 0.414743 
3 0.860958 0.377931 0.404598 
4 0.863289 0.285923 0.316753 
4 0.863311 0.283686 0.321215 
4 0.863531 0.28252 0.31865 
4 0.863728 0.283591 0.311623 
4 0.863705 0.285828 0.307161 
4 0.863486 0.286994 0.309726 
4 0.863508 0.284757 0.314188 
4 0.863383 0.286665 0.331056 
4 0.863406 0.284428 0.335518 
4 0.863625 0.283262 0.332953 
4 0.863822 0.284333 0.325926 
4 0.863799 0.28657 0.321464 
4 0.86358 0.287736 0.324029 
4 0.863603 0.285499 0.328491 
4 0.863477 0.287407 0.345359 
4 0.8635 0.28517 0.349821 
4 0.863719 0.284004 0.347256 
4 0.863916 0.285075 0.340229 
4 0.863894 0.287312 0.335767 
4 0.863674 0.288478 0.338332 
4 0.863697 0.286241 0.342794 
4 0.863572 0.288149 0.359662 
4 0.863594 0.285912 0.364124 
4 0.863814 0.284746 0.361559 
4 0.86401 0.285818 0.354532 
4 0.863988 0.288055 0.35007 
4 0.863768 0.28922 0.352635 
4 0.863791 0.286983 0.357097 
4 0.863666 0.288891 0.373965 
4 0.863689 0.286654 0.378427 
4 0.863908 0.285488 0.375862 
4 0.864105 0.28656 0.368835 
4 0.864082 0.288797 0.364373 
4 0.863863 0.289963 0.366938 
4 0.863885 0.287725 0.3714 
4 0.86376 0.289633 0.388268 
4 0.863783 0.287396 0.39273 
4 0.864002 0.286231 0.390165 
4 0.864199 0.287302 0.383138 
4 0.864176 0.289539 0.378676 
4 0.863957 0.290705 0.381241 
4 0.86398 0.288468 0.385703 
4 0.863855 0.290376 0.402571 
4 0.863877 0.288139 0.407033 
4 0.864097 0.286973 0.404468 
4 0.864293 0.288044 0.397441 
4 0.864271 0.290281 0.392979 
4 0.864051 0.291447 0.395544 
4 0.864074 0.28921 0.400006 
4 0.863949 0.291118 0.416874 
4 0.863971 0.288881 0.421336 
4 0.864191 0.287715 0.418771 
4 0.864388 0.288786 0.411744 
4 0.864365 0.291023 0.407281 
4 0.864146 0.292189 0.409846 
4 0.864168 0.289952 0.414309 
4 0.864043 0.29186 0.431177 
4 0.864066 0.289623 0.435639 
4 0.864285 0.288457 0.433074 
4 0.864482 0.289528 0.426047 
4 0.864459 0.291765 0.421584 
4 0.86424 0.292931 0.424149 
4 0.864262 0.290694 0.428612 
4 0.864137 0.292602 0.44548 
4 0.86416 0.290365 0.449942 
4 0.864379 0.289199 0.447377 
4 0.864576 0.29027 0.44035 
4 0.864554 0.292507 0.435887 
4 0.864334 0.293673 0.438452 
4 0.864357 0.291436 0.442915 
5 0.839588 0.211715 0.795206 
5 0.839454 0.213505 0.801109 
5 0.839541 0.214637 0.813541 
5 0.839763 0.213978 0.820069 
5 0.839897 0.212187 0.814165 
5 0.83981 0.211056 0.801734 
5 0.839676 0.212846 0.807637 
5 0.839722 0.213278 0.785697 
5 0.839588 0.215069 0.7916 
5 0.839676 0.2162 0.804032 
5 0.839898 0.215541 0.81056 
5 0.840032 0.213751 0.804656 
5 0.839944 0.212619 0.792224 
5 0.83981 0.21441 0.798128 
5 0.839856 0.214842 0.776187 
5 0.839722 0.216632 0.782091 
5 0.83981 0.217764 0.794523 
5 0.840032 0.217105 0.80105 
5 0.840166 0.215314 0.795147 
5 0.840078 0.214182 0.782715 
5 0.839944 0.215973 0.788619 
5 0.839991 0.216405 0.766678 
5 0.839857 0.218196 0.772582 
5 0.839944 0.219327 0.785013 
5 0.840166 0.218668 0.791541 
5 0.8403 0.216877 0.785638 
5 0.840212 0.215746 0.773206 
5 0.840078 0.217536 0.77911 
5 0.840125 0.217968 0.757169 
5 0.839991 0.219759 0.763072 
5 0.840078 0.22089 0.775504 
5 0.8403 0.220231 0.782032 
5 0.840434 0.218441 0.776128 
5 0.840347 0.217309 0.763697 
5 0.840213 0.2191 0.7696 
5 0.840259 0.219532 0.74766 
5 0.840125 0.221322 0.753563 
5 0.840213 0.222454 0.765995 
5 0.840435 0.221795 0.772523 
5 0.840569 0.220004 0.766619 
5 0.840481 0.218872 0.754187 
5 0.840347 0.220663 0.760091 
5 0.840393 0.221095 0.73815 
5 0.840259 0.222886 0.744054 
5 0.840347 0.224017 0.756486 
5 0.840569 0.223358 0.763013 
5 0.840703 0.221567 0.75711 
5 0.840615 0.220436 0.744678 
5 0.840481 0.222226 0.750582 
5 0.840528 0.222658 0.728641 
5 0.840394 0.224449 0.734545 
5 0.840481 0.22558 0.746976 
5 0.840703 0.224921 0.753504 
5 0.840837 0.223131 0.747601 
5 0.84075 0.221999 0.735169 
5 0.840615 0.22379 0.741073 
5 0.840662 0.224222 0.719132 
5 0.840528 0.226012 0.725035 
5 0.840616 0.227144 0.737467 
5 0.840837 0.226485 0.743995 
5 0.840971 0.224694 0.738091 
5 0.840884 0.223563 0.72566 
5 0.84075 0.225353 0.731563 
5 0.840796 0.225785 0.709623 
5 0.840662 0.227576 0.715526 
5 0.84075 0.228707 0.727958 
5 0.840972 0.228048 0.734486 
5 0.841106 0.226257 0.728582 
5 0.841018 0.225126 0.71615 
5 0.840884 0.226916 0.722054 
6 0.883572 0.257847 0.2643 
6 0.883485 0.255946 0.271664 
6 0.883646 0.254197 0.275185 
6 0.883895 0.254349 0.271343 
6 0.883983 0.25625 0.263978 
6 0.883821 0.257999 0.260457 
6 0.883734 0.256098 0.267821 
6 0.883626 0.258917 0.278461 
6 0.883538 0.257016 0.285825 
6 0.8837 0.255267 0.289346 
6 0.883949 0.25542 0.285504 
6 0.884036 0.257321 0.278139 
6 0.883875 0.25907 0.274618 
6 0.883787 0.257169 0.281982 
6 0.883679 0.259988 0.292622 
6 0.883592 0.258087 0.299986 
6 0.883753 0.256338 0.303507 
6 0.884002 0.256491 0.299665 
6 0.884089 0.258392 0.2923 
6 0.883928 0.26014 0.288779 
6 0.88384 0.258239 0.296143 
6 0.883732 0.261059 0.306783 
6 0.883645 0.259158 0.314147 
6 0.883806 0.257409 0.317668 
6 0.884055 0.257561 0.313826 
6 0.884143 0.259462 0.306461 
6 0.883981 0.261211 0.30294 
6 0.883894 0.25931 0.310304 
6 0.883786 0.26213 0.320944 
6 0.883698 0.260229 0.328308 
6 0.88386 0.25848 0.331829 
6 0.884108 0.258632 0.327987 
6 0.884196 0.260533 0.320622 
6 0.884035 0.262282 0.317101 
6 0.883947 0.260381 0.324465 
6 0.883839 0.263201 0.335105 
6 0.883751 0.2613 0.342469 
6 0.883913 0.259551 0.34599 
6 0.884162 0.259703 0.342148 
6 0.884249 0.261604 0.334783 
6 0.884088 0.263353 0.331262 
6 0.884 0.261452 0.338626 
6 0.883892 0.264272 0.349266 
6 0.883805 0.262371 0.35663 
6 0.883966 0.260622 0.360151 
6 0.884215 0.260774 0.356309 
6 0.884303 0.262675 0.348944 
6 0.884141 0.264424 0.345423 
6 0.884054 0.262523 0.352787 
6 0.883946 0.265343 0.363427 
6 0.883858 0.263442 0.370791 
6 0.884019 0.261693 0.374312 
6 0.884268 0.261845 0.37047 
6 0.884356 0.263746 0.363105 
6 0.884194 0.265495 0.359584 
6 0.884107 0.263594 0.366948 
6 0.883999 0.266413 0.377588 
6 0.883911 0.264512 0.384952 
6 0.884073 0.262764 0.388473 
6 0.884322 0.262916 0.384631 
6 0.884409 0.264817 0.377266 
6 0.884248 0.266566 0.373745 
6 0.88416 0.264665 0.381109 
6 0.884052 0.267484 0.391749 
6 0.883965 0.265583 0.399113 
6 0.884126 0.263834 0.402634 
6 0.884375 0.263987 0.398792 
6 0.884462 0.265888 0.391427 
6 0.884301 0.267636 0.387906 
6 0.884214 0.265735 0.39527 
7 0.875932 0.462477 0.451485 
7 0.875907 0.460687 0.461332 
7 0.875959 0.460999 0.476283 
7 0.876035 0.463102 0.481387 
7 0.87606 0.464892 0.47154 
7 0.876009 0.464579 0.456589 
7 0.875984 0.462789 0.466436 
7 0.875675 0.463106 0.454071 
7 0.87565 0.461316 0.463918 
7 0.875701 0.461629 0.478869 
7 0.875778 0.463731 0.483973 
7 0.875803 0.465521 0.474126 
7 0.875752 0.465209 0.459175 
7 0.875727 0.463419 0.469022 
7 0.875418 0.463736 0.456657 
7 0.875393 0.461946 0.466504 
7 0.875444 0.462258 0.481455 
7 0.875521 0.464361 0.486559 
7 0.875546 0.466151 0.476712 
7 0.875494 0.465838 0.461761 
7 0.875469 0.464048 0.471608 
7 0.875161 0.464365 0.459243 
7 0.875136 0.462575 0.46909 
7 0.875187 0.462888 0.484041 
7 0.875264 0.46499 0.489145 
7 0.875289 0.46678 0.479298 
7 0.875237 0.466468 0.464347 
7 0.875212 0.464678 0.474194 
7 0.874904 0.464995 0.461829 
7 0.874879 0.463205 0.471676 
7 0.87493 0.463517 0.486627 
7 0.875006 0.465619 0.491731 
7 0.875031 0.467409 0.481884 
7 0.87498 0.467097 0.466933 
7 0.874955 0.465307 0.47678 
7 0.874647 0.465624 0.464415 
7 0.874622 0.463834 0.474262 
7 0.874673 0.464146 0.489213 
7 0.874749 0.466249 0.494317 
7 0.874774 0.468039 0.48447 
7 0.874723 0.467727 0.469519 
7 0.874698 0.465936 0.479366 
7 0.87439 0.466254 0.467001 
7 0.874365 0.464463 0.476848 
7 0.874416 0.464776 0.491799 
7 0.874492 0.466878 0.496903 
7 0.874517 0.468668 0.487056 
7 0.874466 0.468356 0.472105 
7 0.874441 0.466566 0.481952 
7 0.874132 0.466883 0.469587 
7 0.874107 0.465093 0.479434 
7 0.874159 0.465405 0.494385 
7 0.874235 0.467508 0.499489 
7 0.87426 0.469298 0.489642 
7 0.874209 0.468985 0.474691 
7 0.874184 0.467195 0.484538 
7 0.873875 0.467512 0.472173 
7 0.87385 0.465722 0.48202 
7 0.873902 0.466035 0.496971 
7 0.873978 0.468137 0.502075 
7 0.874003 0.469927 0.492228 
7 0.873952 0.469615 0.477277 
7 0.873927 0.467825 0.487124 
7 0.873618 0.468142 0.474759 
7 0.873593 0.466352 0.484606 
7 0.873644 0.466664 0.499557 
7 0.873721 0.468767 0.504661 
7 0.873746 0.470557 0.494814 
7 0.873694 0.470244 0.479863 
7 0.873669 0.468454 0.48971 
8 0.855217 0.18152 0.367802 
8 0.85535 0.180509 0.356399 
8 0.855248 0.1787 0.348682 
8 0.855014 0.177902 0.352367 
8 0.854881 0.178912 0.36377 
8 0.854982 0.180722 0.371487 
8 0.855115 0.179711 0.360085 
8 0.855106 0.183081 0.357242 
8 0.855239 0.18207 0.345839 
8 0.855138 0.180261 0.338122 
8 0.854903 0.179462 0.341807 
8 0.854771 0.180473 0.35321 
8 0.854872 0.182282 0.360927 
8 0.855005 0.181272 0.349525 
8 0.854996 0.184642 0.346682 
8 0.855128 0.183631 0.335279 
8 0.855027 0.181822 0.327562 
8 0.854793 0.181023 0.331247 
8 0.85466 0.182034 0.34265 
8 0.854761 0.183843 0.350368 
8 0.854894 0.182832 0.338965 
8 0.854885 0.186202 0.336122 
8 0.855018 0.185192 0.324719 
8 0.854917 0.183382 0.317002 
8 0.854682 0.182584 0.320687 
8 0.854549 0.183595 0.33209 
8 0.854651 0.185404 0.339808 
8 0.854784 0.184393 0.328405 
8 0.854774 0.187763 0.325562 
8 0.854907 0.186752 0.314159 
8 0.854806 0.184943 0.306442 
8 0.854572 0.184145 0.310127 
8 0.854439 0.185155 0.32153 
8 0.85454 0.186964 0.329248 
8 0.854673 0.185954 0.317845 
8 0.854664 0.189324 0.315002 
8 0.854797 0.188313 0.303599 
8 0.854695 0.186504 0.295882 
8 0.854461 0.185705 0.299567 
8 0.854328 0.186716 0.31097 
8 0.85443 0.188525 0.318688 
8 0.854563 0.187515 0.307285 
8 0.854553 0.190884 0.304442 
8 0.854686 0.189874 0.293039 
8 0.854585 0.188065 0.285322 
8 0.854351 0.187266 0.289008 
8 0.854218 0.188277 0.30041 
8 0.854319 0.190086 0.308128 
8 0.854452 0.189075 0.296725 
8 0.854443 0.192445 0.293882 
8 0.854576 0.191435 0.28248 
8 0.854474 0.189625 0.274762 
8 0.85424 0.188827 0.278448 
8 0.854107 0.189837 0.28985 
8 0.854208 0.191647 0.297568 
8 0.854341 0.190636 0.286165 
8 0.854332 0.194006 0.283322 
8 0.854465 0.192995 0.27192 
8 0.854364 0.191186 0.264202 
8 0.854129 0.190388 0.267888 
8 0.853997 0.191398 0.279291 
8 0.854098 0.193207 0.287008 
8 0.854231 0.192197 0.275605 
8 0.854222 0.195567 0.272763 
8 0.854355 0.194556 0.26136 
8 0.854253 0.192747 0.253642 
8 0.854019 0.191948 0.257328 
8 0.853886 0.192959 0.268731 
8 0.853987 0.194768 0.276448 
8 0.85412 0.193757 0.265045 
9 0.881291 0.560366 0.633823 
9 0.881543 0.560411 0.637167 
9 0.881712 0.559366 0.627792 
9 0.88163 0.558276 0.615073 
9 0.881378 0.558231 0.611729 
9 0.881209 0.559276 0.621104 
9 0.88146 0.559321 0.624448 
9 0.881318 0.562457 0.625496 
9 0.881569 0.562502 0.62884 
9 0.881738 0.561457 0.619465 
9 0.881656 0.560367 0.606746 
9 0.881405 0.560322 0.603402 
9 0.881235 0.561367 0.612777 
9 0.881487 0.561412 0.616121 
9 0.881344 0.564548 0.617169 
9 0.881596 0.564593 0.620513 
9 0.881765 0.563548 0.611138 
9 0.881682 0.562458 0.598419 
9 0.881431 0.562413 0.595075 
9 0.881262 0.563458 0.60445 
9 0.881513 0.563503 0.607794 
9 0.881371 0.566639 0.608842 
9 0.881622 0.566684 0.612186 
9 0.881791 0.565639 0.602811 
9 0.881709 0.564549 0.590092 
9 0.881458 0.564504 0.586748 
9 0.881288 0.565549 0.596123 
9 0.88154 0.565594 0.599467 
9 0.881397 0.56873 0.600515 
9 0.881649 0.568775 0.603859 
9 0.881818 0.56773 0.594484 
9 0.881735 0.56664 0.581765 
9 0.881484 0.566595 0.578421 
9 0.881315 0.56764 0.587796 
9 0.881566 0.567685 0.59114 
9 0.881424 0.570821 0.592188 
9 0.881675 0.570866 0.595532 
9 0.881844 0.569821 0.586157 
9 0.881762 0.568731 0.573438 
9 0.881511 0.568686 0.570094 
9 0.881341 0.569731 0.579469 
9 0.881593 0.569776 0.582813 
9 0.88145 0.572912 0.583861 
9 0.881702 0.572958 0.587205 
9 0.881871 0.571912 0.57783 
9 0.881788 0.570822 0.565111 
9 0.881537 0.570777 0.561767 
9 0.881368 0.571822 0.571142 
9 0.881619 0.571867 0.574486 
9 0.881477 0.575003 0.575534 
9 0.881728 0.575049 0.578878 
9 0.881897 0.574003 0.569503 
9 0.881815 0.572913 0.556784 
9 0.881563 0.572868 0.55344 
9 0.881394 0.573913 0.562815 
9 0.881646 0.573958 0.566159 
9 0.881503 0.577095 0.567207 
9 0.881754 0.57714 0.570551 
9 0.881924 0.576094 0.561176 
9 0.881841 0.575004 0.548457 
9 0.88159 0.574959 0.545113 
9 0.881421 0.576004 0.554487 
9 0.881672 0.576049 0.557832 
9 0.88153 0.579186 0.55888 
9 0.881781 0.579231 0.562224 
9 0.88195 0.578186 0.552849 
9 0.881868 0.577095 0.54013 
9 0.881616 0.57705 0.536785 
9 0.881447 0.578095 0.54616 
9 0.881699 0.57814 0.549505 
10 0.857463 0.542013 0.67433 
10 0.857214 0.54157 0.676965 
10 0.857083 0.540146 0.667536 
10 0.857202 0.539165 0.655473 
10 0.857451 0.539608 0.652838 
10 0.857581 0.541032 0.662266 
10 0.857332 0.540589 0.664901 
10 0.857531 0.540086 0.683472 
10 0.857282 0.539643 0.686107 
10 0.857152 0.538219 0.676679 
10 0.85727 0.537238 0.664615 
10 0.857519 0.537681 0.66198 
10 0.85765 0.539105 0.671409 
10 0.857401 0.538662 0.674044 
10 0.8576 0.53816 0.692615 
10 0.85735 0.537717 0.69525 
10 0.85722 0.536293 0.685821 
10 0.857338 0.535312 0.673758 
10 0.857587 0.535754 0.671123 
10 0.857718 0.537178 0.680551 
10 0.857469 0.536736 0.683186 
10 0.857668 0.536233 0.701757 
10 0.857419 0.53579 0.704392 
10 0.857288 0.534366 0.694963 
10 0.857407 0.533385 0.6829 
10 0.857656 0.533828 0.680265 
10 0.857786 0.535252 0.689694 
10 0.857537 0.534809 0.692329 
10 0.857736 0.534306 0.7109 
10 0.857487 0.533863 0.713535 
10 0.857356 0.532439 0.704106 
10 0.857475 0.531458 0.692043 
10 0.857724 0.531901 0.689408 
10 0.857855 0.533325 0.698836 
10 0.857606 0.532882 0.701471 
10 0.857804 0.532379 0.720042 
10 0.857555 0.531937 0.722677 
10 0.857425 0.530513 0.713248 
10 0.857543 0.529531 0.701185 
10 0.857792 0.529974 0.69855 
10 0.857923 0.531398 0.707979 
10 0.857674 0.530955 0.710614 
10 0.857873 0.530453 0.729185 
10 0.857624 0.53001 0.731819 
10 0.857493 0.528586 0.722391 
10 0.857612 0.527605 0.710327 
10 0.857861 0.528048 0.707693 
10 0.857991 0.529472 0.717121 
10 0.857742 0.529029 0.719756 
10 0.857941 0.528526 0.738327 
10 0.857692 0.528083 0.740962 
10 0.857561 0.526659 0.731533 
10 0.85768 0.525678 0.71947 
10 0.857929 0.526121 0.716835 
10 0.85806 0.527545 0.726264 
10 0.857811 0.527102 0.728899 
10 0.858009 0.526599 0.74747 
10 0.85776 0.526156 0.750104 
10 0.85763 0.524732 0.740676 
10 0.857748 0.523751 0.728612 
10 0.857997 0.524194 0.725978 
10 0.858128 0.525618 0.735406 
10 0.857879 0.525175 0.738041 
10 0.858078 0.524673 0.756612 
10 0.857829 0.52423 0.759247 
10 0.857698 0.522806 0.749818 
10 0.857817 0.521825 0.737755 
10 0.858066 0.522267 0.73512 
10 0.858196 0.523691 0.744549 
10 0.857947 0.523249 0.747183 
ITEM: TIMESTEP
400
ITEM: NUMBER OF ATOMS
700
ITEM: BOX BOUNDS mm ff mm
-7.11219 2
0 1
-0.011213 0.141213
ITEM: ATOMS id_multisphere xs ys zs 
1 0.865723 0.346256 0.537832 
1 0.865975 0.346623 0.540178 
1 0.866054 0.34772 0.552937 
1 0.865882 0.348451 0.56335 
1 0.865631 0.348084 0.561004 
1 0.865551 0.346987 0.548245 
1 0.865803 0.347353 0.550591 
1 0.865741 0.344095 0.545431 
1 0.865993 0.344461 0.547777 
1 0.866072 0.345558 0.560536 
1 0.8659 0.346289 0.570949 
1 0.865649 0.345923 0.568603 
1 0.865569 0.344825 0.555844 
1 0.865821 0.345192 0.55819 
1 0.865759 0.341933 0.55303 
1 0.866011 0.342299 0.555376 
1 0.86609 0.343396 0.568135 
1 0.865918 0.344127 0.578548 
1 0.865667 0.343761 0.576202 
1 0.865587 0.342664 0.563443 
1 0.865839 0.34303 0.565789 
1 0.865777 0.339771 0.560629 
1 0.866029 0.340137 0.562975 
1 0.866108 0.341235 0.575734 
1 0.865936 0.341965 0.586147 
1 0.865685 0.341599 0.5838 
1 0.865605 0.340502 0.571042 
1 0.865857 0.340868 0.573388 
1 0.865796 0.337609 0.568228 
1 0.866047 0.337976 0.570574 
1 0.866126 0.339073 0.583333 
1 0.865954 0.339804 0.593745 
1 0.865703 0.339437 0.591399 
1 0.865624 0.33834 0.578641 
1 0.865875 0.338707 0.580987 
1 0.865814 0.335448 0.575827 
1 0.866065 0.335814 0.578173 
1 0.866144 0.336911 0.590932 
1 0.865972 0.337642 0.601344 
1 0.865721 0.337276 0.598998 
1 0.865642 0.336179 0.586239 
1 0.865893 0.336545 0.588586 
1 0.865832 0.333286 0.583426 
1 0.866083 0.333652 0.585772 
1 0.866163 0.334749 0.598531 
1 0.865991 0.33548 0.608943 
1 0.865739 0.335114 0.606597 
1 0.86566 0.334017 0.593838 
1 0.865911 0.334383 0.596184 
1 0.86585 0.331124 0.591025 
1 0.866101 0.331491 0.593371 
1 0.866181 0.332588 0.606129 
1 0.866009 0.333319 0.616542 
1 0.865757 0.332952 0.614196 
1 0.865678 0.331855 0.601437 
1 0.865929 0.332221 0.603783 
1 0.865868 0.328963 0.598623 
1 0.866119 0.329329 0.60097 
1 0.866199 0.330426 0.613728 
1 0.866027 0.331157 0.624141 
1 0.865775 0.330791 0.621795 
1 0.865696 0.329693 0.609036 
1 0.865947 0.33006 0.611382 
1 0.865886 0.326801 0.606222 
1 0.866137 0.327167 0.608568 
1 0.866217 0.328264 0.621327 
1 0.866045 0.328995 0.63174 
1 0.865793 0.328629 0.629394 
1 0.865714 0.327532 0.616635 
1 0.865965 0.327898 0.618981 
2 0.877118 0.229523 0.234228 
2 0.877147 0.23107 0.245669 
2 0.876969 0.23272 0.248096 
2 0.87676 0.232822 0.239081 
2 0.87673 0.231274 0.227639 
2 0.876909 0.229625 0.225212 
2 0.876939 0.231172 0.236654 
2 0.876987 0.228008 0.244258 
2 0.877017 0.229555 0.2557 
2 0.876838 0.231205 0.258126 
2 0.87663 0.231307 0.249111 
2 0.8766 0.229759 0.23767 
2 0.876779 0.22811 0.235243 
2 0.876809 0.229657 0.246685 
2 0.876857 0.226493 0.254289 
2 0.876887 0.22804 0.265731 
2 0.876708 0.22969 0.268157 
2 0.8765 0.229792 0.259142 
2 0.87647 0.228244 0.2477 
2 0.876648 0.226595 0.245274 
2 0.876678 0.228142 0.256716 
2 0.876727 0.224978 0.26432 
2 0.876757 0.226525 0.275761 
2 0.876578 0.228175 0.278188 
2 0.876369 0.228277 0.269173 
2 0.876339 0.226729 0.257731 
2 0.876518 0.22508 0.255305 
2 0.876548 0.226627 0.266746 
2 0.876597 0.223463 0.274351 
2 0.876626 0.22501 0.285792 
2 0.876448 0.22666 0.288219 
2 0.876239 0.226762 0.279204 
2 0.876209 0.225214 0.267762 
2 0.876388 0.223565 0.265335 
2 0.876418 0.225112 0.276777 
2 0.876466 0.221948 0.284381 
2 0.876496 0.223495 0.295823 
2 0.876317 0.225145 0.298249 
2 0.876109 0.225247 0.289234 
2 0.876079 0.223699 0.277793 
2 0.876258 0.22205 0.275366 
2 0.876288 0.223597 0.286808 
2 0.876336 0.220433 0.294412 
2 0.876366 0.22198 0.305854 
2 0.876187 0.22363 0.30828 
2 0.875979 0.223732 0.299265 
2 0.875949 0.222184 0.287823 
2 0.876127 0.220535 0.285397 
2 0.876157 0.222082 0.296838 
2 0.876206 0.218918 0.304443 
2 0.876236 0.220465 0.315884 
2 0.876057 0.222115 0.318311 
2 0.875848 0.222217 0.309296 
2 0.875818 0.220669 0.297854 
2 0.875997 0.21902 0.295428 
2 0.876027 0.220567 0.306869 
2 0.876075 0.217403 0.314473 
2 0.876105 0.21895 0.325915 
2 0.875927 0.2206 0.328342 
2 0.875718 0.220702 0.319326 
2 0.875688 0.219154 0.307885 
2 0.875867 0.217505 0.305458 
2 0.875897 0.219052 0.3169 
2 0.875945 0.215888 0.324504 
2 0.875975 0.217435 0.335946 
2 0.875796 0.219085 0.338372 
2 0.875588 0.219187 0.329357 
2 0.875558 0.217639 0.317916 
2 0.875737 0.21599 0.315489 
2 0.875766 0.217537 0.326931 
3 0.862949 0.384466 0.427029 
3 0.863069 0.383077 0.416884 
3 0.863173 0.381051 0.42153 
3 0.863158 0.380413 0.436322 
3 0.863038 0.381803 0.446467 
3 0.862934 0.383829 0.441821 
3 0.863054 0.38244 0.431675 
3 0.862717 0.383313 0.42402 
3 0.862836 0.381923 0.413875 
3 0.86294 0.379897 0.418522 
3 0.862925 0.37926 0.433314 
3 0.862805 0.380649 0.443459 
3 0.862701 0.382675 0.438812 
3 0.862821 0.381286 0.428667 
3 0.862484 0.382159 0.421012 
3 0.862603 0.380769 0.410866 
3 0.862708 0.378743 0.415513 
3 0.862692 0.378106 0.430305 
3 0.862573 0.379495 0.44045 
3 0.862468 0.381521 0.435803 
3 0.862588 0.380132 0.425658 
3 0.862251 0.381005 0.418003 
3 0.862371 0.379616 0.407858 
3 0.862475 0.377589 0.412505 
3 0.862459 0.376952 0.427296 
3 0.86234 0.378341 0.437442 
3 0.862236 0.380368 0.432795 
3 0.862355 0.378978 0.42265 
3 0.862018 0.379851 0.414994 
3 0.862138 0.378462 0.404849 
3 0.862242 0.376435 0.409496 
3 0.862227 0.375798 0.424288 
3 0.862107 0.377187 0.434433 
3 0.862003 0.379214 0.429786 
3 0.862122 0.377824 0.419641 
3 0.861785 0.378697 0.411986 
3 0.861905 0.377308 0.401841 
3 0.862009 0.375281 0.406487 
3 0.861994 0.374644 0.421279 
3 0.861874 0.376033 0.431424 
3 0.86177 0.37806 0.426778 
3 0.86189 0.376671 0.416633 
3 0.861553 0.377543 0.408977 
3 0.861672 0.376154 0.398832 
3 0.861776 0.374127 0.403479 
3 0.861761 0.37349 0.418271 
3 0.861641 0.37488 0.428416 
3 0.861537 0.376906 0.423769 
3 0.861657 0.375517 0.413624 
3 0.86132 0.376389 0.405969 
3 0.861439 0.375 0.395823 
3 0.861544 0.372974 0.40047 
3 0.861528 0.372336 0.415262 
3 0.861409 0.373726 0.425407 
3 0.861304 0.375752 0.42076 
3 0.861424 0.374363 0.410615 
3 0.861087 0.375236 0.40296 
3 0.861207 0.373846 0.392815 
3 0.861311 0.37182 0.397462 
3 0.861295 0.371183 0.412254 
3 0.861176 0.372572 0.422399 
3 0.861072 0.374598 0.417752 
3 0.861191 0.373209 0.407607 
3 0.860854 0.374082 0.399951 
3 0.860974 0.372692 0.389806 
3 0.861078 0.370666 0.394453 
3 0.861063 0.370029 0.409245 
3 0.860943 0.371418 0.41939 
3 0.860839 0.373444 0.414743 
3 0.860958 0.372055 0.404598 
4 0.863289 0.280047 0.316753 
4 0.863311 0.27781 0.321215 
4 0.863531 0.276644 0.31865 
4 0.863728 0.277715 0.311623 
4 0.863705 0.279952 0.307161 
4 0.863486 0.281118 0.309726 
4 0.863508 0.278881 0.314188 
4 0.863383 0.280789 0.331056 
4 0.863406 0.278552 0.335518 
4 0.863625 0.277386 0.332953 
4 0.863822 0.278457 0.325926 
4 0.863799 0.280694 0.321464 
4 0.86358 0.28186 0.324029 
4 0.863603 0.279623 0.328491 
4 0.863477 0.281531 0.345359 
4 0.8635 0.279294 0.349821 
4 0.863719 0.278128 0.347256 
4 0.863916 0.279199 0.340229 
4 0.863894 0.281436 0.335767 
4 0.863674 0.282602 0.338332 
4 0.863697 0.280365 0.342794 
4 0.863572 0.282273 0.359662 
4 0.863594 0.280036 0.364124 
4 0.863814 0.27887 0.361559 
4 0.86401 0.279941 0.354532 
4 0.863988 0.282178 0.35007 
4 0.863768 0.283344 0.352635 
4 0.863791 0.281107 0.357097 
4 0.863666 0.283015 0.373965 
4 0.863689 0.280778 0.378427 
4 0.863908 0.279612 0.375862 
4 0.864105 0.280683 0.368835 
4 0.864082 0.28292 0.364373 
4 0.863863 0.284086 0.366938 
4 0.863885 0.281849 0.3714 
4 0.86376 0.283757 0.388268 
4 0.863783 0.28152 0.39273 
4 0.864002 0.280354 0.390165 
4 0.864199 0.281426 0.383138 
4 0.864176 0.283663 0.378676 
4 0.863957 0.284828 0.381241 
4 0.86398 0.282591 0.385703 
4 0.863855 0.284499 0.402571 
4 0.863877 0.282262 0.407033 
4 0.864097 0.281096 0.404468 
4 0.864293 0.282168 0.397441 
4 0.864271 0.284405 0.392979 
4 0.864051 0.285571 0.395544 
4 0.864074 0.283334 0.400006 
4 0.863949 0.285242 0.416874 
4 0.863971 0.283004 0.421336 
4 0.864191 0.281839 0.418771 
4 0.864388 0.28291 0.411744 
4 0.864365 0.285147 0.407281 
4 0.864146 0.286313 0.409846 
4 0.864168 0.284076 0.414309 
4 0.864043 0.285984 0.431177 
4 0.864066 0.283747 0.435639 
4 0.864285 0.282581 0.433074 
4 0.864482 0.283652 0.426047 
4 0.864459 0.285889 0.421584 
4 0.86424 0.287055 0.424149 
4 0.864262 0.284818 0.428612 
4 0.864137 0.286726 0.44548 
4 0.86416 0.284489 0.449942 
4 0.864379 0.283323 0.447377 
4 0.864576 0.284394 0.44035 
4 0.864554 0.286631 0.435887 
4 0.864334 0.287797 0.438452 
4 0.864357 0.28556 0.442915 
5 0.839588 0.205839 0.795206 
5 0.839454 0.207629 0.801109 
5 0.839541 0.208761 0.813541 
5 0.839763 0.208102 0.820069 
5 0.839897 0.206311 0.814165 
5 0.83981 0.20518 0.801734 
5 0.839676 0.20697 0.807637 
5 0.839722 0.207402 0.785697 
5 0.839588 0.209193 0.7916 
5 0.839676 0.210324 0.804032 
5 0.839898 0.209665 0.81056 
5 0.840032 0.207874 0.804656 
5 0.839944 0.206743 0.792224 
5 0.83981 0.208533 0.798128 