LIGGGHTS (Version LIGGGHTS-PUBLIC 3.8.0, compiled 2021-08-11-09:38:37 by mectro, git commit 78f1a0277ef1f4f8ec5be8ad2f9715aa0ca5796c)
#Multisphere

atom_style	sphere
atom_modify	map array sort 0 0
boundary	m m m
newton		off

communicate	single vel yes

#PUBLIC version only supports serial execution
#processors	1 1 1

units		si

#region		reg block -0.3 0.3 -0.3 0.3 0. 0.5 units box
region     reg block 0  0.6 0 .6 0. 0.5 units box

create_box	1 reg
Created orthogonal box = (0 0 0) to (0.6 0.6 0.5)
  2 by 2 by 1 MPI processor grid

neighbor	0.004 bin
neigh_modify	delay 0

#Material properties required for new pair styles

fix 		m1 all property/global youngsModulus peratomtype 1.e7
fix 		m2 all property/global poissonsRatio peratomtype 0.45
fix 		m3 all property/global coefficientRestitution peratomtypepair 1 0.3
fix 		m4 all property/global coefficientFriction peratomtypepair 1 0.5
fix 		m5 all property/global characteristicVelocity scalar 2.

#New pair style
pair_style gran model hertz tangential history #Hertzian without cohesion
pair_coeff	* *

timestep	0.00001

fix		gravi all gravity 9.81 vector 0.0 0.0 -1.0

fix zwalls all wall/gran model hertz tangential history primitive type 1 zplane 0.0

#distributions for insertion
fix		pts1 all particletemplate/multisphere 15485867 atom_type 1 density constant 2500 nspheres 70 ntry 1000000 spheres file ../data/in.PelletV3 scale 0.001 type 1
Finished calculating properties of template
   mass = 1.353404e-03, radius of bounding sphere = 1.255275e-02, radius of equivalent sphere = 5.055913e-03
   center of mass = 0.000000e+00, 0.000000e+00, 0.000000e+00
   center of bounding sphere in body coords = 1.022506e-05, 2.763392e-07, -6.820591e-06
   Principal moments of inertia_: 7.169240e-08, 7.168493e-08, 7.244664e-09
     Eigenvector: 9.829750e-01, 1.837394e-01, 1.219249e-04
     Eigenvector: -1.837393e-01, 9.829749e-01, -5.331589e-04
     Eigenvector: -2.178114e-04, 5.016795e-04, 9.999999e-01
     Inertia tensor: 7.169215e-08, 1.357167e-12, 1.403672e-11
     Inertia tensor: 1.357167e-12, 7.168516e-08, -3.232818e-11
     Inertia tensor: 1.403672e-11, -3.232818e-11, 7.244683e-09
fix		pdd1 all particledistribution/discrete 39659 1 pts1 0.1 #15485867
WARNING: particledistribution/discrete: sum of distribution weights != 1, normalizing distribution (../fix_particledistribution_discrete.cpp:135)

#region and insertion
#region		bc cylinder z 0.0 0.0 0.25 0.1 0.4 units box
region     bc block 0.1  0.5 0.1 .5 0.1 0.2 units box
region     delete block 0.1 0.5 0.1 .5 0 0.05 units box

fix		ins all insert/pack seed 32452843 distributiontemplate pdd1 vel constant 0. 0. 0. orientation random 		insert_every 200 overlapcheck yes region bc ntry_mc 10000 volumefraction_region 0.001
#integrator for multisphere rigid bodies
fix		integr all multisphere
#output settings, include total thermal energy
compute		1 all erotate/sphere
compute quat all multisphere property quat
compute pos  all multisphere property xcm


fix		ts all check/timestep/gran 1000 0.1 0.1
thermo_style	custom step atoms ke c_1 f_ts[1] f_ts[2] vol
thermo		1000
thermo_modify	lost ignore norm no

run 1
Setting up run at Tue Oct  5 09:40:31 2021

WARNING: Energy calculated for multisphere particles is currently not correct (../fix_multisphere.cpp:1312)
INFO: Particle insertion ins: inserting every 200 steps
Memory usage per processor = 12.7107 Mbytes
    Step    Atoms         KinEng              1          ts[1]          ts[2]         Volume 
       0        0              0              0              0              0           0.18 
INFO: Particle insertion ins: inserted 30 particle templates (mass 4.060211e-02) at step 1
 - a total of 30 particle templates (mass 4.060211e-02) inserted so far.
       1     2100  4.8842353e-11              0              0              0           0.18 
Loop time of 0.0136039 on 4 procs for 1 steps with 2100 atoms, finish time Tue Oct  5 09:40:31 2021


Pair  time (%) = 6.6e-06 (0.0485155)
Neigh time (%) = 0.0028326 (20.822)
Comm  time (%) = 0.000684925 (5.03477)
Outpt time (%) = 2.7e-05 (0.198472)
Other time (%) = 0.0100528 (73.8963)

Nlocal:    525 ave 560 max 490 min
Histogram: 2 0 0 0 0 0 0 0 0 2
Nghost:    39.75 ave 117 max 0 min
Histogram: 2 0 0 1 0 0 0 0 0 1
Neighs:    0 ave 0 max 0 min
Histogram: 4 0 0 0 0 0 0 0 0 0

Total # of neighbors = 0
Ave neighs/atom = 0
Neighbor list builds = 1
Dangerous builds = 0

#dump		dmp all custom/vtk 200 post/multi_*.vtk id type mol x y z vx vy vz fx fy fz omegax omegay omegaz radius
dump        orien all local 200 post/dump.pellet_orienrand c_quat[1] c_quat[2] c_quat[3] c_quat[4] c_pos[1] c_pos[2] c_pos[3]
dump        yoink all custom 200 post/dump.posrand.xyz id xs ys zs
dump_modify yoink sort id
#dump       pos  all local 200 post/dump.pellet_pos c_pos[1] c_pos[2] c_pos[3]

#insert particles
run		40000 upto every 200 "delete_atoms region delete"
Setting up run at Tue Oct  5 09:40:31 2021

WARNING: Energy calculated for multisphere particles is currently not correct (../fix_multisphere.cpp:1312)
Memory usage per processor = 16.4403 Mbytes
    Step    Atoms         KinEng              1          ts[1]          ts[2]         Volume 
       1     2100  4.8842353e-11              0              0              0           0.18 
     201     2100  7.8538993e-06              0              0              0           0.18 
Loop time of 0.0195841 on 4 procs for 200 steps with 2100 atoms, finish time Tue Oct  5 09:40:31 2021


Pair  time (%) = 0.000830225 (4.23929)
Neigh time (%) = 0.00259253 (13.2379)
Comm  time (%) = 0.0025489 (13.0152)
Outpt time (%) = 0.00085245 (4.35278)
Other time (%) = 0.0127599 (65.1548)

Nlocal:    525 ave 560 max 490 min
Histogram: 2 0 0 0 0 0 0 0 0 2
Nghost:    39.75 ave 117 max 0 min
Histogram: 2 0 0 1 0 0 0 0 0 1
Neighs:    0 ave 0 max 0 min
Histogram: 4 0 0 0 0 0 0 0 0 0

Total # of neighbors = 0
Ave neighs/atom = 0
Neighbor list builds = 1
Dangerous builds = 0
delete_atoms region delete
Deleted 0 atoms, new total = 2100
Setting up run at Tue Oct  5 09:40:31 2021

WARNING: Energy calculated for multisphere particles is currently not correct (../fix_multisphere.cpp:1312)
Memory usage per processor = 18.6347 Mbytes
    Step    Atoms         KinEng              1          ts[1]          ts[2]         Volume 
     201     2100  7.8538993e-06              0              0              0           0.18 
     401     2100  3.1337303e-05              0              0              0           0.18 
Loop time of 0.0204594 on 4 procs for 200 steps with 2100 atoms, finish time Tue Oct  5 09:40:31 2021


Pair  time (%) = 0.0007782 (3.80364)
Neigh time (%) = 0.0027216 (13.3025)
Comm  time (%) = 0.0012098 (5.91318)
Outpt time (%) = 0.000754475 (3.68767)
Other time (%) = 0.0149953 (73.2931)

Nlocal:    525 ave 560 max 490 min
Histogram: 2 0 0 0 0 0 0 0 0 2
Nghost:    39.75 ave 117 max 0 min
Histogram: 2 0 0 1 0 0 0 0 0 1
Neighs:    0 ave 0 max 0 min
Histogram: 4 0 0 0 0 0 0 0 0 0

Total # of neighbors = 0
Ave neighs/atom = 0
Neighbor list builds = 1
Dangerous builds = 0
delete_atoms region delete
Deleted 0 atoms, new total = 2100
Setting up run at Tue Oct  5 09:40:31 2021

WARNING: Energy calculated for multisphere particles is currently not correct (../fix_multisphere.cpp:1312)
Memory usage per processor = 18.6347 Mbytes
    Step    Atoms         KinEng              1          ts[1]          ts[2]         Volume 
     401     2100  3.1337303e-05              0              0              0           0.18 
     601     2100  7.0450259e-05              0              0              0           0.18 
Loop time of 0.0178077 on 4 procs for 200 steps with 2100 atoms, finish time Tue Oct  5 09:40:31 2021


Pair  time (%) = 0.00075105 (4.21756)
Neigh time (%) = 0.0025658 (14.4084)
Comm  time (%) = 0.000977675 (5.49018)
Outpt time (%) = 0.0005771 (3.24073)
Other time (%) = 0.0129361 (72.6432)

Nlocal:    525 ave 560 max 490 min
Histogram: 2 0 0 0 0 0 0 0 0 2
Nghost:    39.75 ave 117 max 0 min
Histogram: 2 0 0 1 0 0 0 0 0 1
Neighs:    0 ave 0 max 0 min
Histogram: 4 0 0 0 0 0 0 0 0 0

Total # of neighbors = 0
Ave neighs/atom = 0
Neighbor list builds = 1
Dangerous builds = 0
delete_atoms region delete
Deleted 0 atoms, new total = 2100
Setting up run at Tue Oct  5 09:40:31 2021

WARNING: Energy calculated for multisphere particles is currently not correct (../fix_multisphere.cpp:1312)
Memory usage per processor = 18.6347 Mbytes
    Step    Atoms         KinEng              1          ts[1]          ts[2]         Volume 
     601     2100  7.0450259e-05              0              0              0           0.18 
     801     2100  0.00012519277              0              0              0           0.18 
Loop time of 0.0216254 on 4 procs for 200 steps with 2100 atoms, finish time Tue Oct  5 09:40:31 2021


Pair  time (%) = 0.0007968 (3.68456)
Neigh time (%) = 0.00259127 (11.9826)
Comm  time (%) = 0.00131645 (6.08752)
Outpt time (%) = 0.0005459 (2.52435)
Other time (%) = 0.016375 (75.721)

Nlocal:    525 ave 560 max 490 min
Histogram: 2 0 0 0 0 0 0 0 0 2
Nghost:    39.75 ave 117 max 0 min
Histogram: 2 0 0 1 0 0 0 0 0 1
Neighs:    0 ave 0 max 0 min
Histogram: 4 0 0 0 0 0 0 0 0 0

Total # of neighbors = 0
Ave neighs/atom = 0
Neighbor list builds = 1
Dangerous builds = 0
delete_atoms region delete
Deleted 0 atoms, new total = 2100
Setting up run at Tue Oct  5 09:40:31 2021

WARNING: Energy calculated for multisphere particles is currently not correct (../fix_multisphere.cpp:1312)
Memory usage per processor = 18.6347 Mbytes
    Step    Atoms         KinEng              1          ts[1]          ts[2]         Volume 
     801     2100  0.00012519277              0              0              0           0.18 
    1000     2100  0.00019517409              0    0.091379875     0.02300069           0.18 
    1001     2100  0.00019556483              0    0.091379875     0.02300069           0.18 
Loop time of 0.0168438 on 4 procs for 200 steps with 2100 atoms, finish time Tue Oct  5 09:40:31 2021


Pair  time (%) = 0.000808925 (4.80252)
Neigh time (%) = 0.00263827 (15.6632)
Comm  time (%) = 0.000991525 (5.8866)
Outpt time (%) = 0.00073685 (4.37461)
Other time (%) = 0.0116682 (69.2731)

Nlocal:    525 ave 560 max 490 min
Histogram: 2 0 0 0 0 0 0 0 0 2
Nghost:    39.75 ave 117 max 0 min
Histogram: 2 0 0 1 0 0 0 0 0 1
Neighs:    0 ave 0 max 0 min
Histogram: 4 0 0 0 0 0 0 0 0 0

Total # of neighbors = 0
Ave neighs/atom = 0
Neighbor list builds = 1
Dangerous builds = 0
delete_atoms region delete
Deleted 0 atoms, new total = 2100
Setting up run at Tue Oct  5 09:40:31 2021

WARNING: Energy calculated for multisphere particles is currently not correct (../fix_multisphere.cpp:1312)
Memory usage per processor = 18.6347 Mbytes
    Step    Atoms         KinEng              1          ts[1]          ts[2]         Volume 
    1001     2100  0.00019556483              0    0.091379875     0.02300069           0.18 
    1201     2100  0.00028156645              0    0.091379875     0.02300069           0.18 
Loop time of 0.0192279 on 4 procs for 200 steps with 2100 atoms, finish time Tue Oct  5 09:40:31 2021


Pair  time (%) = 0.000811975 (4.2229)
Neigh time (%) = 0.00263007 (13.6784)
Comm  time (%) = 0.0013268 (6.90039)
Outpt time (%) = 0.000942025 (4.89926)
Other time (%) = 0.013517 (70.299)

Nlocal:    525 ave 560 max 490 min
Histogram: 2 0 0 0 0 0 0 0 0 2
Nghost:    39.75 ave 117 max 0 min
Histogram: 2 0 0 1 0 0 0 0 0 1
Neighs:    0 ave 0 max 0 min
Histogram: 4 0 0 0 0 0 0 0 0 0

Total # of neighbors = 0
Ave neighs/atom = 0
Neighbor list builds = 1
Dangerous builds = 0
delete_atoms region delete
Deleted 0 atoms, new total = 2100
Setting up run at Tue Oct  5 09:40:31 2021

WARNING: Energy calculated for multisphere particles is currently not correct (../fix_multisphere.cpp:1312)
Memory usage per processor = 18.6347 Mbytes
    Step    Atoms         KinEng              1          ts[1]          ts[2]         Volume 
    1201     2100  0.00028156645              0    0.091379875     0.02300069           0.18 
    1401     2100  0.00038319762              0    0.091379875     0.02300069           0.18 
Loop time of 0.0148504 on 4 procs for 200 steps with 2100 atoms, finish time Tue Oct  5 09:40:31 2021


Pair  time (%) = 0.000739425 (4.97916)
Neigh time (%) = 0.00274413 (18.4785)
Comm  time (%) = 0.0008586 (5.78166)
Outpt time (%) = 0.000683125 (4.60004)
Other time (%) = 0.00982512 (66.1607)

Nlocal:    525 ave 560 max 490 min
Histogram: 2 0 0 0 0 0 0 0 0 2
Nghost:    39.75 ave 117 max 0 min
Histogram: 2 0 0 1 0 0 0 0 0 1
Neighs:    0 ave 0 max 0 min
Histogram: 4 0 0 0 0 0 0 0 0 0

Total # of neighbors = 0
Ave neighs/atom = 0
Neighbor list builds = 1
Dangerous builds = 0
delete_atoms region delete
Deleted 0 atoms, new total = 2100
Setting up run at Tue Oct  5 09:40:31 2021

WARNING: Energy calculated for multisphere particles is currently not correct (../fix_multisphere.cpp:1312)
Memory usage per processor = 18.6347 Mbytes
    Step    Atoms         KinEng              1          ts[1]          ts[2]         Volume 
    1401     2100  0.00038319762              0    0.091379875     0.02300069           0.18 
    1601     2100  0.00050045834              0    0.091379875     0.02300069           0.18 
Loop time of 0.0172009 on 4 procs for 200 steps with 2100 atoms, finish time Tue Oct  5 09:40:31 2021


Pair  time (%) = 0.000754825 (4.38828)
Neigh time (%) = 0.0025728 (14.9573)
Comm  time (%) = 0.00107128 (6.228)
Outpt time (%) = 0.000535875 (3.11538)
Other time (%) = 0.0122662 (71.311)

Nlocal:    525 ave 560 max 490 min
Histogram: 2 0 0 0 0 0 0 0 0 2
Nghost:    39.75 ave 117 max 0 min
Histogram: 2 0 0 1 0 0 0 0 0 1
Neighs:    0 ave 0 max 0 min
Histogram: 4 0 0 0 0 0 0 0 0 0

Total # of neighbors = 0
Ave neighs/atom = 0
Neighbor list builds = 1
Dangerous builds = 0
delete_atoms region delete
Deleted 0 atoms, new total = 2100
Setting up run at Tue Oct  5 09:40:31 2021

WARNING: Energy calculated for multisphere particles is currently not correct (../fix_multisphere.cpp:1312)
Memory usage per processor = 18.6347 Mbytes
    Step    Atoms         KinEng              1          ts[1]          ts[2]         Volume 
    1601     2100  0.00050045834              0    0.091379875     0.02300069           0.18 
    1801     2100  0.00063334861              0    0.091379875     0.02300069           0.18 
Loop time of 0.0163194 on 4 procs for 200 steps with 2100 atoms, finish time Tue Oct  5 09:40:31 2021


Pair  time (%) = 0.000745325 (4.5671)
Neigh time (%) = 0.0031539 (19.326)
Comm  time (%) = 0.000913775 (5.5993)
Outpt time (%) = 0.000587175 (3.59801)
Other time (%) = 0.0109193 (66.9096)

Nlocal:    525 ave 560 max 490 min
Histogram: 2 0 0 0 0 0 0 0 0 2
Nghost:    39.75 ave 117 max 0 min
Histogram: 2 0 0 1 0 0 0 0 0 1
Neighs:    0 ave 0 max 0 min
Histogram: 4 0 0 0 0 0 0 0 0 0

Total # of neighbors = 0
Ave neighs/atom = 0
Neighbor list builds = 1
Dangerous builds = 0
delete_atoms region delete
Deleted 0 atoms, new total = 2100
Setting up run at Tue Oct  5 09:40:31 2021

WARNING: Energy calculated for multisphere particles is currently not correct (../fix_multisphere.cpp:1312)
Memory usage per processor = 18.6347 Mbytes
    Step    Atoms         KinEng              1          ts[1]          ts[2]         Volume 
    1801     2100  0.00063334861              0    0.091379875     0.02300069           0.18 
    2000     2100  0.00078108696              0    0.091379875    0.026422176           0.18 
    2001     2100  0.00078186844              0    0.091379875    0.026422176           0.18 
Loop time of 0.0226621 on 4 procs for 200 steps with 2100 atoms, finish time Tue Oct  5 09:40:31 2021


Pair  time (%) = 0.0008478 (3.74105)
Neigh time (%) = 0.0026096 (11.5153)
Comm  time (%) = 0.00134742 (5.94573)
Outpt time (%) = 0.00055735 (2.4594)
Other time (%) = 0.0172999 (76.3386)

Nlocal:    525 ave 560 max 490 min
Histogram: 2 0 0 0 0 0 0 0 0 2
Nghost:    39.75 ave 117 max 0 min
Histogram: 2 0 0 1 0 0 0 0 0 1
Neighs:    0 ave 0 max 0 min
Histogram: 4 0 0 0 0 0 0 0 0 0

Total # of neighbors = 0
Ave neighs/atom = 0
Neighbor list builds = 1
Dangerous builds = 0
delete_atoms region delete
Deleted 0 atoms, new total = 2100
Setting up run at Tue Oct  5 09:40:31 2021

WARNING: Energy calculated for multisphere particles is currently not correct (../fix_multisphere.cpp:1312)
Memory usage per processor = 18.6347 Mbytes
    Step    Atoms         KinEng              1          ts[1]          ts[2]         Volume 
    2001     2100  0.00078186844              0    0.091379875    0.026422176           0.18 
    2201     2100  0.00094601782              0    0.091379875    0.026422176           0.18 
Loop time of 0.014022 on 4 procs for 200 steps with 2100 atoms, finish time Tue Oct  5 09:40:31 2021


Pair  time (%) = 0.00072725 (5.18651)
Neigh time (%) = 0.00269983 (19.2543)
Comm  time (%) = 0.00080045 (5.70855)
Outpt time (%) = 0.000514125 (3.66657)
Other time (%) = 0.0092803 (66.1841)

Nlocal:    525 ave 560 max 490 min
Histogram: 2 0 0 0 0 0 0 0 0 2
Nghost:    39.75 ave 117 max 0 min
Histogram: 2 0 0 1 0 0 0 0 0 1
Neighs:    0 ave 0 max 0 min
Histogram: 4 0 0 0 0 0 0 0 0 0

Total # of neighbors = 0
Ave neighs/atom = 0
Neighbor list builds = 1
Dangerous builds = 0
delete_atoms region delete
Deleted 0 atoms, new total = 2100
Setting up run at Tue Oct  5 09:40:31 2021

WARNING: Energy calculated for multisphere particles is currently not correct (../fix_multisphere.cpp:1312)
Memory usage per processor = 18.6347 Mbytes
    Step    Atoms         KinEng              1          ts[1]          ts[2]         Volume 
    2201     2100  0.00094601782              0    0.091379875    0.026422176           0.18 
INFO: Particle insertion ins: inserted 1 particle templates (mass 1.353404e-03) at step 2401
 - a total of 31 particle templates (mass 4.195551e-02) inserted so far.
    2401     2170   0.0011257968              0    0.091379875    0.026422176           0.18 
Loop time of 0.0195046 on 4 procs for 200 steps with 2170 atoms, finish time Tue Oct  5 09:40:31 2021


Pair  time (%) = 0.000729925 (3.74233)
Neigh time (%) = 0.0029787 (15.2718)
Comm  time (%) = 0.000817525 (4.19146)
Outpt time (%) = 0.00068465 (3.51021)
Other time (%) = 0.0142937 (73.2842)

Nlocal:    542.5 ave 560 max 490 min
Histogram: 1 0 0 0 0 0 0 0 0 3
Nghost:    39.75 ave 117 max 0 min
Histogram: 2 0 0 1 0 0 0 0 0 1
Neighs:    0 ave 0 max 0 min
Histogram: 4 0 0 0 0 0 0 0 0 0

Total # of neighbors = 0
Ave neighs/atom = 0
Neighbor list builds = 1
Dangerous builds = 0
delete_atoms region delete
Deleted 0 atoms, new total = 2170
Setting up run at Tue Oct  5 09:40:31 2021

WARNING: Energy calculated for multisphere particles is currently not correct (../fix_multisphere.cpp:1312)
Memory usage per processor = 18.635 Mbytes
    Step    Atoms         KinEng              1          ts[1]          ts[2]         Volume 
    2401     2170   0.0011257968              0    0.091379875    0.026422176           0.18 
    2601     2170    0.001321467              0    0.091379875    0.026422176           0.18 
Loop time of 0.0141472 on 4 procs for 200 steps with 2170 atoms, finish time Tue Oct  5 09:40:31 2021


Pair  time (%) = 0.00074315 (5.25299)
Neigh time (%) = 0.002445 (17.2826)
Comm  time (%) = 0.000821 (5.80328)
Outpt time (%) = 0.000540575 (3.82108)
Other time (%) = 0.00959745 (67.84)

Nlocal:    542.5 ave 560 max 490 min
Histogram: 1 0 0 0 0 0 0 0 0 3
Nghost:    39.75 ave 117 max 0 min
Histogram: 2 0 0 1 0 0 0 0 0 1
Neighs:    0 ave 0 max 0 min
Histogram: 4 0 0 0 0 0 0 0 0 0

Total # of neighbors = 0
Ave neighs/atom = 0
Neighbor list builds = 1
Dangerous builds = 0
delete_atoms region delete
Deleted 0 atoms, new total = 2170
Setting up run at Tue Oct  5 09:40:31 2021

WARNING: Energy calculated for multisphere particles is currently not correct (../fix_multisphere.cpp:1312)
Memory usage per processor = 18.6356 Mbytes
    Step    Atoms         KinEng              1          ts[1]          ts[2]         Volume 
    2601     2170    0.001321467              0    0.091379875    0.026422176           0.18 
    2801     2170   0.0015332879              0    0.091379875    0.026422176           0.18 
Loop time of 0.0143299 on 4 procs for 200 steps with 2170 atoms, finish time Tue Oct  5 09:40:31 2021


Pair  time (%) = 0.0007653 (5.34057)
Neigh time (%) = 0.0025515 (17.8054)
Comm  time (%) = 0.000847475 (5.91402)
Outpt time (%) = 0.000545975 (3.81003)
Other time (%) = 0.00961968 (67.13)

Nlocal:    542.5 ave 560 max 490 min
Histogram: 1 0 0 0 0 0 0 0 0 3
Nghost:    39.75 ave 117 max 0 min
Histogram: 2 0 0 1 0 0 0 0 0 1
Neighs:    0 ave 0 max 0 min
Histogram: 4 0 0 0 0 0 0 0 0 0

Total # of neighbors = 0
Ave neighs/atom = 0
Neighbor list builds = 1
Dangerous builds = 0
delete_atoms region delete
Deleted 0 atoms, new total = 2170
Setting up run at Tue Oct  5 09:40:31 2021

WARNING: Energy calculated for multisphere particles is currently not correct (../fix_multisphere.cpp:1312)
Memory usage per processor = 18.6356 Mbytes
    Step    Atoms         KinEng              1          ts[1]          ts[2]         Volume 
    2801     2170   0.0015332879              0    0.091379875    0.026422176           0.18 
    3000     2170   0.0017600792              0    0.091379875    0.028654582           0.18 
    3001     2170   0.0017612592              0    0.091379875    0.028654582           0.18 
Loop time of 0.0141597 on 4 procs for 200 steps with 2170 atoms, finish time Tue Oct  5 09:40:31 2021


Pair  time (%) = 0.000745275 (5.26334)
Neigh time (%) = 0.00244238 (17.2487)
Comm  time (%) = 0.00084275 (5.95174)
Outpt time (%) = 0.000606525 (4.28345)
Other time (%) = 0.0095228 (67.2527)

Nlocal:    542.5 ave 560 max 490 min
Histogram: 1 0 0 0 0 0 0 0 0 3
Nghost:    39.75 ave 117 max 0 min
Histogram: 2 0 0 1 0 0 0 0 0 1
Neighs:    0 ave 0 max 0 min
Histogram: 4 0 0 0 0 0 0 0 0 0

Total # of neighbors = 0
Ave neighs/atom = 0
Neighbor list builds = 1
Dangerous builds = 0
delete_atoms region delete
Deleted 0 atoms, new total = 2170
Setting up run at Tue Oct  5 09:40:31 2021

WARNING: Energy calculated for multisphere particles is currently not correct (../fix_multisphere.cpp:1312)
Memory usage per processor = 18.6356 Mbytes
    Step    Atoms         KinEng              1          ts[1]          ts[2]         Volume 
    3001     2170   0.0017612592              0    0.091379875    0.028654582           0.18 
    3201     2170   0.0020053811              0    0.091379875    0.028654582           0.18 
Loop time of 0.016119 on 4 procs for 200 steps with 2170 atoms, finish time Tue Oct  5 09:40:31 2021


Pair  time (%) = 0.00076115 (4.72208)
Neigh time (%) = 0.00311488 (19.3243)
Comm  time (%) = 0.0007914 (4.90975)
Outpt time (%) = 0.000896325 (5.56069)
Other time (%) = 0.0105552 (65.4832)

Nlocal:    542.5 ave 560 max 490 min
Histogram: 1 0 0 0 0 0 0 0 0 3
Nghost:    39.75 ave 117 max 0 min
Histogram: 2 0 0 1 0 0 0 0 0 1
Neighs:    0 ave 0 max 0 min
Histogram: 4 0 0 0 0 0 0 0 0 0

Total # of neighbors = 0
Ave neighs/atom = 0
Neighbor list builds = 1
Dangerous builds = 0
delete_atoms region delete
Deleted 0 atoms, new total = 2170
Setting up run at Tue Oct  5 09:40:31 2021

WARNING: Energy calculated for multisphere particles is currently not correct (../fix_multisphere.cpp:1312)
Memory usage per processor = 18.6356 Mbytes
    Step    Atoms         KinEng              1          ts[1]          ts[2]         Volume 
    3201     2170   0.0020053811              0    0.091379875    0.028654582           0.18 
    3401     2170   0.0022656536              0    0.091379875    0.028654582           0.18 
Loop time of 0.0145013 on 4 procs for 200 steps with 2170 atoms, finish time Tue Oct  5 09:40:31 2021


Pair  time (%) = 0.000736925 (5.08179)
Neigh time (%) = 0.00292608 (20.178)
Comm  time (%) = 0.000812975 (5.60622)
Outpt time (%) = 0.00055215 (3.80759)
Other time (%) = 0.00947318 (65.3264)

Nlocal:    542.5 ave 560 max 490 min
Histogram: 1 0 0 0 0 0 0 0 0 3
Nghost:    39.75 ave 117 max 0 min
Histogram: 2 0 0 1 0 0 0 0 0 1
Neighs:    0 ave 0 max 0 min
Histogram: 4 0 0 0 0 0 0 0 0 0

Total # of neighbors = 0
Ave neighs/atom = 0
Neighbor list builds = 1
Dangerous builds = 0
delete_atoms region delete
Deleted 0 atoms, new total = 2170
Setting up run at Tue Oct  5 09:40:31 2021

WARNING: Energy calculated for multisphere particles is currently not correct (../fix_multisphere.cpp:1312)
Memory usage per processor = 18.6356 Mbytes
    Step    Atoms         KinEng              1          ts[1]          ts[2]         Volume 
    3401     2170   0.0022656536              0    0.091379875    0.028654582           0.18 
    3601     2170   0.0025420765              0    0.091379875    0.028654582           0.18 
Loop time of 0.0143726 on 4 procs for 200 steps with 2170 atoms, finish time Tue Oct  5 09:40:31 2021


Pair  time (%) = 0.000748175 (5.20556)
Neigh time (%) = 0.00240852 (16.7578)
Comm  time (%) = 0.000866825 (6.03109)
Outpt time (%) = 0.0005266 (3.66392)
Other time (%) = 0.00982248 (68.3417)

Nlocal:    542.5 ave 560 max 490 min
Histogram: 1 0 0 0 0 0 0 0 0 3
Nghost:    39.75 ave 117 max 0 min
Histogram: 2 0 0 1 0 0 0 0 0 1
Neighs:    0 ave 0 max 0 min
Histogram: 4 0 0 0 0 0 0 0 0 0

Total # of neighbors = 0
Ave neighs/atom = 0
Neighbor list builds = 1
Dangerous builds = 0
delete_atoms region delete
Deleted 0 atoms, new total = 2170
Setting up run at Tue Oct  5 09:40:31 2021

WARNING: Energy calculated for multisphere particles is currently not correct (../fix_multisphere.cpp:1312)
Memory usage per processor = 18.6356 Mbytes
    Step    Atoms         KinEng              1          ts[1]          ts[2]         Volume 
    3601     2170   0.0025420765              0    0.091379875    0.028654582           0.18 
    3801     2170     0.00283465              0    0.091379875    0.028654582           0.18 
Loop time of 0.0146317 on 4 procs for 200 steps with 2170 atoms, finish time Tue Oct  5 09:40:31 2021


Pair  time (%) = 0.0007441 (5.08552)
Neigh time (%) = 0.00299118 (20.443)
Comm  time (%) = 0.000795275 (5.43527)
Outpt time (%) = 0.00055235 (3.77501)
Other time (%) = 0.00954885 (65.2612)

Nlocal:    542.5 ave 560 max 490 min
Histogram: 1 0 0 0 0 0 0 0 0 3
Nghost:    39.75 ave 117 max 0 min
Histogram: 2 0 0 1 0 0 0 0 0 1
Neighs:    0 ave 0 max 0 min
Histogram: 4 0 0 0 0 0 0 0 0 0

Total # of neighbors = 0
Ave neighs/atom = 0
Neighbor list builds = 1
Dangerous builds = 0
delete_atoms region delete
Deleted 0 atoms, new total = 2170
Setting up run at Tue Oct  5 09:40:31 2021

WARNING: Energy calculated for multisphere particles is currently not correct (../fix_multisphere.cpp:1312)
Memory usage per processor = 18.6356 Mbytes
    Step    Atoms         KinEng              1          ts[1]          ts[2]         Volume 
    3801     2170     0.00283465              0    0.091379875    0.028654582           0.18 
    4000     2170   0.0031417903              0    0.091379875    0.030351869           0.18 
    4001     2170   0.0031433741              0    0.091379875    0.030351869           0.18 
Loop time of 0.0144609 on 4 procs for 200 steps with 2170 atoms, finish time Tue Oct  5 09:40:31 2021


Pair  time (%) = 0.000759375 (5.25124)
Neigh time (%) = 0.00271128 (18.749)
Comm  time (%) = 0.000829075 (5.73323)
Outpt time (%) = 0.000583675 (4.03624)
Other time (%) = 0.00957747 (66.2303)

Nlocal:    542.5 ave 560 max 490 min
Histogram: 1 0 0 0 0 0 0 0 0 3
Nghost:    39.75 ave 117 max 0 min
Histogram: 2 0 0 1 0 0 0 0 0 1
Neighs:    0 ave 0 max 0 min
Histogram: 4 0 0 0 0 0 0 0 0 0

Total # of neighbors = 0
Ave neighs/atom = 0
Neighbor list builds = 1
Dangerous builds = 0
delete_atoms region delete
Deleted 0 atoms, new total = 2170
Setting up run at Tue Oct  5 09:40:31 2021

WARNING: Energy calculated for multisphere particles is currently not correct (../fix_multisphere.cpp:1312)
Memory usage per processor = 18.6356 Mbytes
    Step    Atoms         KinEng              1          ts[1]          ts[2]         Volume 
    4001     2170   0.0031433741              0    0.091379875    0.030351869           0.18 
INFO: Particle insertion ins: inserted 1 particle templates (mass 1.353404e-03) at step 4201
 - a total of 32 particle templates (mass 4.330891e-02) inserted so far.
    4201     2240   0.0034682487              0    0.091379875    0.030351869           0.18 
Loop time of 0.0184796 on 4 procs for 200 steps with 2240 atoms, finish time Tue Oct  5 09:40:31 2021


Pair  time (%) = 0.000750875 (4.06327)
Neigh time (%) = 0.00270253 (14.6244)
Comm  time (%) = 0.00085925 (4.64973)
Outpt time (%) = 0.0005427 (2.93676)
Other time (%) = 0.0136242 (73.7259)

Nlocal:    560 ave 630 max 490 min
Histogram: 1 0 0 0 0 2 0 0 0 1
Nghost:    39.75 ave 117 max 0 min
Histogram: 2 0 0 1 0 0 0 0 0 1
Neighs:    0 ave 0 max 0 min
Histogram: 4 0 0 0 0 0 0 0 0 0

Total # of neighbors = 0
Ave neighs/atom = 0
Neighbor list builds = 1
Dangerous builds = 0
delete_atoms region delete
Deleted 0 atoms, new total = 2240
Setting up run at Tue Oct  5 09:40:31 2021

WARNING: Energy calculated for multisphere particles is currently not correct (../fix_multisphere.cpp:1312)
Memory usage per processor = 18.6359 Mbytes
    Step    Atoms         KinEng              1          ts[1]          ts[2]         Volume 
    4201     2240   0.0034682487              0    0.091379875    0.030351869           0.18 
    4401     2240   0.0038095356              0    0.091379875    0.030351869           0.18 
Loop time of 0.0157749 on 4 procs for 200 steps with 2240 atoms, finish time Tue Oct  5 09:40:31 2021


Pair  time (%) = 0.000759325 (4.81352)
Neigh time (%) = 0.00310035 (19.6538)
Comm  time (%) = 0.000904575 (5.73429)
Outpt time (%) = 0.0006837 (4.33411)
Other time (%) = 0.0103269 (65.4643)

Nlocal:    560 ave 630 max 490 min
Histogram: 1 0 0 0 0 2 0 0 0 1
Nghost:    39.75 ave 117 max 0 min
Histogram: 2 0 0 1 0 0 0 0 0 1
Neighs:    0 ave 0 max 0 min
Histogram: 4 0 0 0 0 0 0 0 0 0

Total # of neighbors = 0
Ave neighs/atom = 0
Neighbor list builds = 1
Dangerous builds = 0
delete_atoms region delete
Deleted 0 atoms, new total = 2240
Setting up run at Tue Oct  5 09:40:31 2021

WARNING: Energy calculated for multisphere particles is currently not correct (../fix_multisphere.cpp:1312)
Memory usage per processor = 18.639 Mbytes
    Step    Atoms         KinEng              1          ts[1]          ts[2]         Volume 
    4401     2240   0.0038095356              0    0.091379875    0.030351869           0.18 
    4601     2240    0.004167494              0    0.091379875    0.030351869           0.18 
Loop time of 0.015109 on 4 procs for 200 steps with 2240 atoms, finish time Tue Oct  5 09:40:31 2021


Pair  time (%) = 0.00076415 (5.05758)
Neigh time (%) = 0.0024732 (16.3691)
Comm  time (%) = 0.0008186 (5.41796)
Outpt time (%) = 0.0005611 (3.71368)
Other time (%) = 0.010492 (69.4417)

Nlocal:    560 ave 630 max 490 min
Histogram: 1 0 0 0 0 2 0 0 0 1
Nghost:    39.75 ave 117 max 0 min
Histogram: 2 0 0 1 0 0 0 0 0 1
Neighs:    0 ave 0 max 0 min
Histogram: 4 0 0 0 0 0 0 0 0 0

Total # of neighbors = 0
Ave neighs/atom = 0
Neighbor list builds = 1
Dangerous builds = 0
delete_atoms region delete
Deleted 0 atoms, new total = 2240
Setting up run at Tue Oct  5 09:40:31 2021

WARNING: Energy calculated for multisphere particles is currently not correct (../fix_multisphere.cpp:1312)
Memory usage per processor = 18.639 Mbytes
    Step    Atoms         KinEng              1          ts[1]          ts[2]         Volume 
    4601     2240    0.004167494              0    0.091379875    0.030351869           0.18 
    4801     2240    0.004542124              0    0.091379875    0.030351869           0.18 
Loop time of 0.0149904 on 4 procs for 200 steps with 2240 atoms, finish time Tue Oct  5 09:40:31 2021


Pair  time (%) = 0.000768525 (5.12678)
Neigh time (%) = 0.00246225 (16.4255)
Comm  time (%) = 0.000804725 (5.36827)
Outpt time (%) = 0.00054695 (3.64867)
Other time (%) = 0.010408 (69.4308)

Nlocal:    560 ave 630 max 490 min
Histogram: 1 0 0 0 0 2 0 0 0 1
Nghost:    39.75 ave 117 max 0 min
Histogram: 2 0 0 1 0 0 0 0 0 1
Neighs:    0 ave 0 max 0 min
Histogram: 4 0 0 0 0 0 0 0 0 0

Total # of neighbors = 0
Ave neighs/atom = 0
Neighbor list builds = 1
Dangerous builds = 0
delete_atoms region delete
Deleted 0 atoms, new total = 2240
Setting up run at Tue Oct  5 09:40:31 2021

WARNING: Energy calculated for multisphere particles is currently not correct (../fix_multisphere.cpp:1312)
Memory usage per processor = 18.639 Mbytes
    Step    Atoms         KinEng              1          ts[1]          ts[2]         Volume 
    4801     2240    0.004542124              0    0.091379875    0.030351869           0.18 
    5000     2240   0.0049314275              0    0.091379875    0.031737273           0.18 
    5001     2240   0.0049334255              0    0.091379875    0.031737273           0.18 
Loop time of 0.0146215 on 4 procs for 200 steps with 2240 atoms, finish time Tue Oct  5 09:40:31 2021


Pair  time (%) = 0.00075965 (5.19544)
Neigh time (%) = 0.00245117 (16.7642)
Comm  time (%) = 0.0008147 (5.57194)
Outpt time (%) = 0.000600625 (4.10783)
Other time (%) = 0.00999532 (68.3606)

Nlocal:    560 ave 630 max 490 min
Histogram: 1 0 0 0 0 2 0 0 0 1
Nghost:    39.75 ave 117 max 0 min
Histogram: 2 0 0 1 0 0 0 0 0 1
Neighs:    0 ave 0 max 0 min
Histogram: 4 0 0 0 0 0 0 0 0 0

Total # of neighbors = 0
Ave neighs/atom = 0
Neighbor list builds = 1
Dangerous builds = 0
delete_atoms region delete
Deleted 0 atoms, new total = 2240
Setting up run at Tue Oct  5 09:40:31 2021

WARNING: Energy calculated for multisphere particles is currently not correct (../fix_multisphere.cpp:1312)
Memory usage per processor = 18.639 Mbytes
    Step    Atoms         KinEng              1          ts[1]          ts[2]         Volume 
    5001     2240   0.0049334255              0    0.091379875    0.031737273           0.18 
    5201     2240   0.0053413985              0    0.091379875    0.031737273           0.18 
Loop time of 0.0150261 on 4 procs for 200 steps with 2240 atoms, finish time Tue Oct  5 09:40:31 2021


Pair  time (%) = 0.000767825 (5.10993)
Neigh time (%) = 0.00243985 (16.2374)
Comm  time (%) = 0.000948325 (6.31117)
Outpt time (%) = 0.000534175 (3.55498)
Other time (%) = 0.010336 (68.7865)

Nlocal:    560 ave 630 max 490 min
Histogram: 1 0 0 0 0 2 0 0 0 1
Nghost:    39.75 ave 117 max 0 min
Histogram: 2 0 0 1 0 0 0 0 0 1
Neighs:    0 ave 0 max 0 min
Histogram: 4 0 0 0 0 0 0 0 0 0

Total # of neighbors = 0
Ave neighs/atom = 0
Neighbor list builds = 1
Dangerous builds = 0
delete_atoms region delete
Deleted 0 atoms, new total = 2240
Setting up run at Tue Oct  5 09:40:31 2021

WARNING: Energy calculated for multisphere particles is currently not correct (../fix_multisphere.cpp:1312)
Memory usage per processor = 18.639 Mbytes
    Step    Atoms         KinEng              1          ts[1]          ts[2]         Volume 
    5201     2240   0.0053413985              0    0.091379875    0.031737273           0.18 
    5401     2240    0.005766043              0    0.091379875    0.031737273           0.18 
Loop time of 0.0158739 on 4 procs for 200 steps with 2240 atoms, finish time Tue Oct  5 09:40:31 2021


Pair  time (%) = 0.0007645 (4.81609)
Neigh time (%) = 0.00286465 (18.0463)
Comm  time (%) = 0.000828925 (5.22194)
Outpt time (%) = 0.000619325 (3.90154)
Other time (%) = 0.0107965 (68.0141)

Nlocal:    560 ave 630 max 490 min
Histogram: 1 0 0 0 0 2 0 0 0 1
Nghost:    39.75 ave 117 max 0 min
Histogram: 2 0 0 1 0 0 0 0 0 1
Neighs:    0 ave 0 max 0 min
Histogram: 4 0 0 0 0 0 0 0 0 0

Total # of neighbors = 0
Ave neighs/atom = 0
Neighbor list builds = 1
Dangerous builds = 0
delete_atoms region delete
Deleted 0 atoms, new total = 2240
Setting up run at Tue Oct  5 09:40:31 2021

WARNING: Energy calculated for multisphere particles is currently not correct (../fix_multisphere.cpp:1312)
Memory usage per processor = 18.639 Mbytes
    Step    Atoms         KinEng              1          ts[1]          ts[2]         Volume 
    5401     2240    0.005766043              0    0.091379875    0.031737273           0.18 
    5601     2240   0.0062073591              0    0.091379875    0.031737273           0.18 
Loop time of 0.0155115 on 4 procs for 200 steps with 2240 atoms, finish time Tue Oct  5 09:40:31 2021


Pair  time (%) = 0.000756475 (4.87687)
Neigh time (%) = 0.00274422 (17.6916)
Comm  time (%) = 0.000806375 (5.19857)
Outpt time (%) = 0.00113567 (7.32152)
Other time (%) = 0.0100687 (64.9115)

Nlocal:    560 ave 630 max 490 min
Histogram: 1 0 0 0 0 2 0 0 0 1
Nghost:    39.75 ave 117 max 0 min
Histogram: 2 0 0 1 0 0 0 0 0 1
Neighs:    0 ave 0 max 0 min
Histogram: 4 0 0 0 0 0 0 0 0 0

Total # of neighbors = 0
Ave neighs/atom = 0
Neighbor list builds = 1
Dangerous builds = 0
delete_atoms region delete
Deleted 0 atoms, new total = 2240
Setting up run at Tue Oct  5 09:40:31 2021

WARNING: Energy calculated for multisphere particles is currently not correct (../fix_multisphere.cpp:1312)
Memory usage per processor = 18.639 Mbytes
    Step    Atoms         KinEng              1          ts[1]          ts[2]         Volume 
    5601     2240   0.0062073591              0    0.091379875    0.031737273           0.18 
INFO: Particle insertion ins: inserted 1 particle templates (mass 1.353404e-03) at step 5801
 - a total of 33 particle templates (mass 4.466232e-02) inserted so far.
    5801     2310   0.0066653467              0    0.091379875    0.031737273           0.18 
Loop time of 0.0193448 on 4 procs for 200 steps with 2310 atoms, finish time Tue Oct  5 09:40:31 2021


Pair  time (%) = 0.0007657 (3.95817)
Neigh time (%) = 0.00297173 (15.3619)
Comm  time (%) = 0.0012579 (6.50252)
Outpt time (%) = 0.00058545 (3.02639)
Other time (%) = 0.013764 (71.151)

Nlocal:    577.5 ave 700 max 490 min
Histogram: 1 0 0 2 0 0 0 0 0 1
Nghost:    39.75 ave 117 max 0 min
Histogram: 2 0 0 1 0 0 0 0 0 1
Neighs:    0 ave 0 max 0 min
Histogram: 4 0 0 0 0 0 0 0 0 0

Total # of neighbors = 0
Ave neighs/atom = 0
Neighbor list builds = 1
Dangerous builds = 0
delete_atoms region delete
Deleted 0 atoms, new total = 2310
Setting up run at Tue Oct  5 09:40:31 2021

WARNING: Energy calculated for multisphere particles is currently not correct (../fix_multisphere.cpp:1312)
Memory usage per processor = 18.6393 Mbytes
    Step    Atoms         KinEng              1          ts[1]          ts[2]         Volume 
    5801     2310   0.0066653467              0    0.091379875    0.031737273           0.18 
    6000     2310   0.0071378502              0    0.091379875     0.03291602           0.18 
    6001     2310   0.0071402676              0    0.091379875     0.03291602           0.18 
Loop time of 0.0173954 on 4 procs for 200 steps with 2310 atoms, finish time Tue Oct  5 09:40:31 2021


Pair  time (%) = 0.00085525 (4.91652)
Neigh time (%) = 0.0026397 (15.1747)
Comm  time (%) = 0.00099165 (5.70063)
Outpt time (%) = 0.00068325 (3.92775)
Other time (%) = 0.0122256 (70.2804)

Nlocal:    577.5 ave 700 max 490 min
Histogram: 1 0 0 2 0 0 0 0 0 1
Nghost:    39.75 ave 117 max 0 min
Histogram: 2 0 0 1 0 0 0 0 0 1
Neighs:    0 ave 0 max 0 min
Histogram: 4 0 0 0 0 0 0 0 0 0

Total # of neighbors = 0
Ave neighs/atom = 0
Neighbor list builds = 1
Dangerous builds = 0
delete_atoms region delete
Deleted 0 atoms, new total = 2310
Setting up run at Tue Oct  5 09:40:31 2021

WARNING: Energy calculated for multisphere particles is currently not correct (../fix_multisphere.cpp:1312)
Memory usage per processor = 18.6424 Mbytes
    Step    Atoms         KinEng              1          ts[1]          ts[2]         Volume 
    6001     2310   0.0071402676              0    0.091379875     0.03291602           0.18 
    6201     2310    0.007632381              0    0.091379875     0.03291602           0.18 
Loop time of 0.0164687 on 4 procs for 200 steps with 2310 atoms, finish time Tue Oct  5 09:40:31 2021


Pair  time (%) = 0.000795125 (4.82811)
Neigh time (%) = 0.0029928 (18.1727)
Comm  time (%) = 0.000829325 (5.03578)
Outpt time (%) = 0.000630475 (3.82833)
Other time (%) = 0.0112209 (68.1351)

Nlocal:    577.5 ave 700 max 490 min
Histogram: 1 0 0 2 0 0 0 0 0 1
Nghost:    39.75 ave 117 max 0 min
Histogram: 2 0 0 1 0 0 0 0 0 1
Neighs:    0 ave 0 max 0 min
Histogram: 4 0 0 0 0 0 0 0 0 0

Total # of neighbors = 0
Ave neighs/atom = 0
Neighbor list builds = 1
Dangerous builds = 0
delete_atoms region delete
Deleted 0 atoms, new total = 2310
Setting up run at Tue Oct  5 09:40:31 2021

WARNING: Energy calculated for multisphere particles is currently not correct (../fix_multisphere.cpp:1312)
Memory usage per processor = 18.6424 Mbytes
    Step    Atoms         KinEng              1          ts[1]          ts[2]         Volume 
    6201     2310    0.007632381              0    0.091379875     0.03291602           0.18 
    6401     2310   0.0081416869              0    0.091379875     0.03291602           0.18 
Loop time of 0.0154219 on 4 procs for 200 steps with 2310 atoms, finish time Tue Oct  5 09:40:31 2021


Pair  time (%) = 0.000776875 (5.03749)
Neigh time (%) = 0.00246832 (16.0053)
Comm  time (%) = 0.0008669 (5.62124)
Outpt time (%) = 0.000573925 (3.7215)
Other time (%) = 0.0107359 (69.6144)

Nlocal:    577.5 ave 700 max 490 min
Histogram: 1 0 0 2 0 0 0 0 0 1
Nghost:    39.75 ave 117 max 0 min
Histogram: 2 0 0 1 0 0 0 0 0 1
Neighs:    0 ave 0 max 0 min
Histogram: 4 0 0 0 0 0 0 0 0 0

Total # of neighbors = 0
Ave neighs/atom = 0
Neighbor list builds = 1
Dangerous builds = 0
delete_atoms region delete
Deleted 0 atoms, new total = 2310
Setting up run at Tue Oct  5 09:40:31 2021

WARNING: Energy calculated for multisphere particles is currently not correct (../fix_multisphere.cpp:1312)
Memory usage per processor = 18.6424 Mbytes
    Step    Atoms         KinEng              1          ts[1]          ts[2]         Volume 
    6401     2310   0.0081416869              0    0.091379875     0.03291602           0.18 
    6601     2310   0.0086681854              0    0.091379875     0.03291602           0.18 
Loop time of 0.0164494 on 4 procs for 200 steps with 2310 atoms, finish time Tue Oct  5 09:40:31 2021


Pair  time (%) = 0.000804075 (4.88817)
Neigh time (%) = 0.00250825 (15.2483)
Comm  time (%) = 0.0008481 (5.15581)
Outpt time (%) = 0.000563475 (3.4255)
Other time (%) = 0.0117255 (71.2822)

Nlocal:    577.5 ave 700 max 490 min
Histogram: 1 0 0 2 0 0 0 0 0 1
Nghost:    39.75 ave 117 max 0 min
Histogram: 2 0 0 1 0 0 0 0 0 1
Neighs:    0 ave 0 max 0 min
Histogram: 4 0 0 0 0 0 0 0 0 0

Total # of neighbors = 0
Ave neighs/atom = 0
Neighbor list builds = 1
Dangerous builds = 0
delete_atoms region delete
Deleted 0 atoms, new total = 2310
Setting up run at Tue Oct  5 09:40:31 2021

WARNING: Energy calculated for multisphere particles is currently not correct (../fix_multisphere.cpp:1312)
Memory usage per processor = 18.6424 Mbytes
    Step    Atoms         KinEng              1          ts[1]          ts[2]         Volume 
    6601     2310   0.0086681854              0    0.091379875     0.03291602           0.18 
    6801     2310   0.0092118763              0    0.091379875     0.03291602           0.18 
Loop time of 0.0151642 on 4 procs for 200 steps with 2310 atoms, finish time Tue Oct  5 09:40:31 2021


Pair  time (%) = 0.000774025 (5.10427)
Neigh time (%) = 0.00268322 (17.6944)
Comm  time (%) = 0.00079015 (5.21061)
Outpt time (%) = 0.000559325 (3.68844)
Other time (%) = 0.0103575 (68.3023)

Nlocal:    577.5 ave 700 max 490 min
Histogram: 1 0 0 2 0 0 0 0 0 1
Nghost:    39.75 ave 117 max 0 min
Histogram: 2 0 0 1 0 0 0 0 0 1
Neighs:    0 ave 0 max 0 min
Histogram: 4 0 0 0 0 0 0 0 0 0

Total # of neighbors = 0
Ave neighs/atom = 0
Neighbor list builds = 1
Dangerous builds = 0
delete_atoms region delete
Deleted 0 atoms, new total = 2310
Setting up run at Tue Oct  5 09:40:31 2021

WARNING: Energy calculated for multisphere particles is currently not correct (../fix_multisphere.cpp:1312)
Memory usage per processor = 18.6424 Mbytes
    Step    Atoms         KinEng              1          ts[1]          ts[2]         Volume 
    6801     2310   0.0092118763              0    0.091379875     0.03291602           0.18 
    7000     2310   0.0097699125              0    0.091379875    0.033946711           0.18 
INFO: Particle insertion ins: inserted 1 particle templates (mass 1.353404e-03) at step 7001
 - a total of 34 particle templates (mass 4.601572e-02) inserted so far.
    7001     2380   0.0097727597              0    0.091379875    0.033946711           0.18 
Loop time of 0.0236749 on 4 procs for 200 steps with 2380 atoms, finish time Tue Oct  5 09:40:31 2021


Pair  time (%) = 0.000833825 (3.52198)
Neigh time (%) = 0.00255755 (10.8028)
Comm  time (%) = 0.000948325 (4.00561)
Outpt time (%) = 0.00060555 (2.55777)
Other time (%) = 0.0187296 (79.1118)

Nlocal:    595 ave 770 max 490 min
Histogram: 1 0 2 0 0 0 0 0 0 1
Nghost:    39.75 ave 117 max 0 min
Histogram: 2 0 0 1 0 0 0 0 0 1
Neighs:    0 ave 0 max 0 min
Histogram: 4 0 0 0 0 0 0 0 0 0

Total # of neighbors = 0
Ave neighs/atom = 0
Neighbor list builds = 1
Dangerous builds = 0
delete_atoms region delete
Deleted 0 atoms, new total = 2380
Setting up run at Tue Oct  5 09:40:31 2021

WARNING: Energy calculated for multisphere particles is currently not correct (../fix_multisphere.cpp:1312)
Memory usage per processor = 18.6427 Mbytes
    Step    Atoms         KinEng              1          ts[1]          ts[2]         Volume 
    7001     2380   0.0097727597              0    0.091379875    0.033946711           0.18 
    7201     2380    0.010351097              0    0.091379875    0.033946711           0.18 
Loop time of 0.0172682 on 4 procs for 200 steps with 2380 atoms, finish time Tue Oct  5 09:40:31 2021


Pair  time (%) = 0.000800825 (4.63758)
Neigh time (%) = 0.00268345 (15.5399)
Comm  time (%) = 0.00082505 (4.77787)
Outpt time (%) = 0.0006598 (3.82091)
Other time (%) = 0.012299 (71.2238)

Nlocal:    595 ave 770 max 490 min
Histogram: 1 0 2 0 0 0 0 0 0 1
Nghost:    39.75 ave 117 max 0 min
Histogram: 2 0 0 1 0 0 0 0 0 1
Neighs:    0 ave 0 max 0 min
Histogram: 4 0 0 0 0 0 0 0 0 0

Total # of neighbors = 0
Ave neighs/atom = 0
Neighbor list builds = 1
Dangerous builds = 0
delete_atoms region delete
Deleted 0 atoms, new total = 2380
Setting up run at Tue Oct  5 09:40:31 2021

WARNING: Energy calculated for multisphere particles is currently not correct (../fix_multisphere.cpp:1312)
Memory usage per processor = 18.6458 Mbytes
    Step    Atoms         KinEng              1          ts[1]          ts[2]         Volume 
    7201     2380    0.010351097              0    0.091379875    0.033946711           0.18 
    7401     2380    0.010947149              0    0.091379875    0.033946711           0.18 
Loop time of 0.0172238 on 4 procs for 200 steps with 2380 atoms, finish time Tue Oct  5 09:40:32 2021


Pair  time (%) = 0.00079875 (4.63749)
Neigh time (%) = 0.00250477 (14.5426)
Comm  time (%) = 0.00111395 (6.46752)
Outpt time (%) = 0.00060305 (3.50127)
Other time (%) = 0.0122032 (70.8512)

Nlocal:    595 ave 770 max 490 min
Histogram: 1 0 2 0 0 0 0 0 0 1
Nghost:    39.75 ave 117 max 0 min
Histogram: 2 0 0 1 0 0 0 0 0 1
Neighs:    0 ave 0 max 0 min
Histogram: 4 0 0 0 0 0 0 0 0 0

Total # of neighbors = 0
Ave neighs/atom = 0
Neighbor list builds = 1
Dangerous builds = 0
delete_atoms region delete
Deleted 0 atoms, new total = 2380
Setting up run at Tue Oct  5 09:40:32 2021

WARNING: Energy calculated for multisphere particles is currently not correct (../fix_multisphere.cpp:1312)
Memory usage per processor = 18.6458 Mbytes
    Step    Atoms         KinEng              1          ts[1]          ts[2]         Volume 
    7401     2380    0.010947149              0    0.091379875    0.033946711           0.18 
    7601     2380    0.011560913              0    0.091379875    0.033946711           0.18 
Loop time of 0.0179223 on 4 procs for 200 steps with 2380 atoms, finish time Tue Oct  5 09:40:32 2021


Pair  time (%) = 0.000902725 (5.03687)
Neigh time (%) = 0.00292528 (16.322)
Comm  time (%) = 0.000816025 (4.55312)
Outpt time (%) = 0.000592925 (3.3083)
Other time (%) = 0.0126854 (70.7797)

Nlocal:    595 ave 770 max 490 min
Histogram: 1 0 2 0 0 0 0 0 0 1
Nghost:    39.75 ave 117 max 0 min
Histogram: 2 0 0 1 0 0 0 0 0 1
Neighs:    0 ave 0 max 0 min
Histogram: 4 0 0 0 0 0 0 0 0 0

Total # of neighbors = 0
Ave neighs/atom = 0
Neighbor list builds = 1
Dangerous builds = 0
delete_atoms region delete
Deleted 0 atoms, new total = 2380
Setting up run at Tue Oct  5 09:40:32 2021

WARNING: Energy calculated for multisphere particles is currently not correct (../fix_multisphere.cpp:1312)
Memory usage per processor = 18.6458 Mbytes
    Step    Atoms         KinEng              1          ts[1]          ts[2]         Volume 
    7601     2380    0.011560913              0    0.091379875    0.033946711           0.18 
    7801     2380    0.012192392              0    0.091379875    0.033946711           0.18 
Loop time of 0.0183879 on 4 procs for 200 steps with 2380 atoms, finish time Tue Oct  5 09:40:32 2021


Pair  time (%) = 0.00080595 (4.38303)
Neigh time (%) = 0.00275372 (14.9757)
Comm  time (%) = 0.0008511 (4.62857)
Outpt time (%) = 0.000960525 (5.22367)
Other time (%) = 0.0130167 (70.789)

Nlocal:    595 ave 770 max 490 min
Histogram: 1 0 2 0 0 0 0 0 0 1
Nghost:    39.75 ave 117 max 0 min
Histogram: 2 0 0 1 0 0 0 0 0 1
Neighs:    0 ave 0 max 0 min
Histogram: 4 0 0 0 0 0 0 0 0 0

Total # of neighbors = 0
Ave neighs/atom = 0
Neighbor list builds = 1
Dangerous builds = 0
delete_atoms region delete
Deleted 0 atoms, new total = 2380
Setting up run at Tue Oct  5 09:40:32 2021

WARNING: Energy calculated for multisphere particles is currently not correct (../fix_multisphere.cpp:1312)
Memory usage per processor = 18.6458 Mbytes
    Step    Atoms         KinEng              1          ts[1]          ts[2]         Volume 
    7801     2380    0.012192392              0    0.091379875    0.033946711           0.18 
    8000     2380    0.012838293              0    0.091379875    0.034865578           0.18 
INFO: Particle insertion ins: inserted 1 particle templates (mass 1.353404e-03) at step 8001
 - a total of 35 particle templates (mass 4.736912e-02) inserted so far.
    8001     2450    0.012841583              0    0.091379875    0.034865578           0.18 
Loop time of 0.0217002 on 4 procs for 200 steps with 2450 atoms, finish time Tue Oct  5 09:40:32 2021


Pair  time (%) = 0.00083 (3.82484)
Neigh time (%) = 0.0025659 (11.8243)
Comm  time (%) = 0.00104728 (4.8261)
Outpt time (%) = 0.000815625 (3.7586)
Other time (%) = 0.0164414 (75.7662)

Nlocal:    612.5 ave 840 max 490 min
Histogram: 1 0 2 0 0 0 0 0 0 1
Nghost:    39.75 ave 117 max 0 min
Histogram: 2 0 0 1 0 0 0 0 0 1
Neighs:    0 ave 0 max 0 min
Histogram: 4 0 0 0 0 0 0 0 0 0

Total # of neighbors = 0
Ave neighs/atom = 0
Neighbor list builds = 1
Dangerous builds = 0
delete_atoms region delete
Deleted 0 atoms, new total = 2450
Setting up run at Tue Oct  5 09:40:32 2021

WARNING: Energy calculated for multisphere particles is currently not correct (../fix_multisphere.cpp:1312)
Memory usage per processor = 18.6461 Mbytes
    Step    Atoms         KinEng              1          ts[1]          ts[2]         Volume 
    8001     2450    0.012841583              0    0.091379875    0.034865578           0.18 
    8201     2450     0.01350875              0    0.091379875    0.034865578           0.18 
Loop time of 0.0193617 on 4 procs for 200 steps with 2450 atoms, finish time Tue Oct  5 09:40:32 2021


Pair  time (%) = 0.0008258 (4.26512)
Neigh time (%) = 0.00253788 (13.1077)
Comm  time (%) = 0.000981425 (5.06889)
Outpt time (%) = 0.00075095 (3.87853)
Other time (%) = 0.0142657 (73.6798)

Nlocal:    612.5 ave 840 max 490 min
Histogram: 1 0 2 0 0 0 0 0 0 1
Nghost:    39.75 ave 117 max 0 min
Histogram: 2 0 0 1 0 0 0 0 0 1
Neighs:    0 ave 0 max 0 min
Histogram: 4 0 0 0 0 0 0 0 0 0

Total # of neighbors = 0
Ave neighs/atom = 0
Neighbor list builds = 1
Dangerous builds = 0
delete_atoms region delete
Deleted 0 atoms, new total = 2450
Setting up run at Tue Oct  5 09:40:32 2021

WARNING: Energy calculated for multisphere particles is currently not correct (../fix_multisphere.cpp:1312)
Memory usage per processor = 18.6492 Mbytes
    Step    Atoms         KinEng              1          ts[1]          ts[2]         Volume 
    8201     2450     0.01350875              0    0.091379875    0.034865578           0.18 
INFO: Particle insertion ins: inserted 1 particle templates (mass 1.353404e-03) at step 8401
 - a total of 36 particle templates (mass 4.872253e-02) inserted so far.
    8401     2520    0.014194152              0    0.091379875    0.034865578           0.18 
Loop time of 0.0239036 on 4 procs for 200 steps with 2520 atoms, finish time Tue Oct  5 09:40:32 2021


Pair  time (%) = 0.00092035 (3.85025)
Neigh time (%) = 0.00298675 (12.495)
Comm  time (%) = 0.00100605 (4.20877)
Outpt time (%) = 0.000635225 (2.65744)
Other time (%) = 0.0183553 (76.7886)

Nlocal:    630 ave 910 max 490 min
Histogram: 1 2 0 0 0 0 0 0 0 1
Nghost:    39.75 ave 117 max 0 min
Histogram: 2 0 0 1 0 0 0 0 0 1
Neighs:    0 ave 0 max 0 min
Histogram: 4 0 0 0 0 0 0 0 0 0

Total # of neighbors = 0
Ave neighs/atom = 0
Neighbor list builds = 1
Dangerous builds = 0
delete_atoms region delete
Deleted 0 atoms, new total = 2520
Setting up run at Tue Oct  5 09:40:32 2021

WARNING: Energy calculated for multisphere particles is currently not correct (../fix_multisphere.cpp:1312)
Memory usage per processor = 18.6495 Mbytes
    Step    Atoms         KinEng              1          ts[1]          ts[2]         Volume 
    8401     2520    0.014194152              0    0.091379875    0.034865578           0.18 
    8601     2520     0.01489805              0    0.091379875    0.034865578           0.18 
Loop time of 0.0196351 on 4 procs for 200 steps with 2520 atoms, finish time Tue Oct  5 09:40:32 2021


Pair  time (%) = 0.0008826 (4.49501)
Neigh time (%) = 0.00263095 (13.3992)
Comm  time (%) = 0.000860425 (4.38208)
Outpt time (%) = 0.0007931 (4.0392)
Other time (%) = 0.014468 (73.6845)

Nlocal:    630 ave 910 max 490 min
Histogram: 1 2 0 0 0 0 0 0 0 1
Nghost:    39.75 ave 117 max 0 min
Histogram: 2 0 0 1 0 0 0 0 0 1
Neighs:    0 ave 0 max 0 min
Histogram: 4 0 0 0 0 0 0 0 0 0

Total # of neighbors = 0
Ave neighs/atom = 0
Neighbor list builds = 1
Dangerous builds = 0
delete_atoms region delete
Deleted 0 atoms, new total = 2520
Setting up run at Tue Oct  5 09:40:32 2021

WARNING: Energy calculated for multisphere particles is currently not correct (../fix_multisphere.cpp:1312)
Memory usage per processor = 18.6526 Mbytes
    Step    Atoms         KinEng              1          ts[1]          ts[2]         Volume 
    8601     2520     0.01489805              0    0.091379875    0.034865578           0.18 
INFO: Particle insertion ins: inserted 2 particle templates (mass 2.706807e-03) at step 8801
 - a total of 38 particle templates (mass 5.142933e-02) inserted so far.
    8801     2660    0.015620703              0    0.091379875    0.034865578           0.18 
Loop time of 0.0223899 on 4 procs for 200 steps with 2660 atoms, finish time Tue Oct  5 09:40:32 2021


Pair  time (%) = 0.00082745 (3.69564)
Neigh time (%) = 0.0026968 (12.0447)
Comm  time (%) = 0.00085395 (3.814)
Outpt time (%) = 0.000681375 (3.04322)
Other time (%) = 0.0173303 (77.4024)

Nlocal:    665 ave 980 max 490 min
Histogram: 1 1 1 0 0 0 0 0 0 1
Nghost:    39.75 ave 117 max 0 min
Histogram: 2 0 0 1 0 0 0 0 0 1
Neighs:    0 ave 0 max 0 min
Histogram: 4 0 0 0 0 0 0 0 0 0

Total # of neighbors = 0
Ave neighs/atom = 0
Neighbor list builds = 1
Dangerous builds = 0
delete_atoms region delete
Deleted 0 atoms, new total = 2660
Setting up run at Tue Oct  5 09:40:32 2021

WARNING: Energy calculated for multisphere particles is currently not correct (../fix_multisphere.cpp:1312)
Memory usage per processor = 18.6531 Mbytes
    Step    Atoms         KinEng              1          ts[1]          ts[2]         Volume 
    8801     2660    0.015620703              0    0.091379875    0.034865578           0.18 
    9000     2660    0.016358876              0    0.091379875    0.035696692           0.18 
    9001     2660    0.016362635              0    0.091379875    0.035696692           0.18 
Loop time of 0.021168 on 4 procs for 200 steps with 2660 atoms, finish time Tue Oct  5 09:40:32 2021


Pair  time (%) = 0.000870975 (4.11457)
Neigh time (%) = 0.00261685 (12.3623)
Comm  time (%) = 0.0009038 (4.26964)
Outpt time (%) = 0.00082365 (3.89101)
Other time (%) = 0.0159528 (75.3625)

Nlocal:    665 ave 980 max 490 min
Histogram: 1 1 1 0 0 0 0 0 0 1
Nghost:    39.75 ave 117 max 0 min
Histogram: 2 0 0 1 0 0 0 0 0 1
Neighs:    0 ave 0 max 0 min
Histogram: 4 0 0 0 0 0 0 0 0 0

Total # of neighbors = 0
Ave neighs/atom = 0
Neighbor list builds = 1
Dangerous builds = 0
delete_atoms region delete
Deleted 0 atoms, new total = 2660
Setting up run at Tue Oct  5 09:40:32 2021

WARNING: Energy calculated for multisphere particles is currently not correct (../fix_multisphere.cpp:1312)
Memory usage per processor = 18.6569 Mbytes
    Step    Atoms         KinEng              1          ts[1]          ts[2]         Volume 
    9001     2660    0.016362635              0    0.091379875    0.035696692           0.18 
INFO: Particle insertion ins: inserted 1 particle templates (mass 1.353404e-03) at step 9201
 - a total of 39 particle templates (mass 5.278274e-02) inserted so far.
    9201     2730    0.017124365              0    0.091379875    0.035696692           0.18 
Loop time of 0.0232888 on 4 procs for 200 steps with 2730 atoms, finish time Tue Oct  5 09:40:32 2021


Pair  time (%) = 0.0008763 (3.76275)
Neigh time (%) = 0.00270247 (11.6042)
Comm  time (%) = 0.000917875 (3.94127)
Outpt time (%) = 0.00060885 (2.61434)
Other time (%) = 0.0181833 (78.0775)

Nlocal:    682.5 ave 1050 max 490 min
Histogram: 1 1 1 0 0 0 0 0 0 1
Nghost:    39.75 ave 117 max 0 min
Histogram: 2 0 0 1 0 0 0 0 0 1
Neighs:    1.25 ave 5 max 0 min
Histogram: 3 0 0 0 0 0 0 0 0 1

Total # of neighbors = 5
Ave neighs/atom = 0.0018315
Neighbor list builds = 1
Dangerous builds = 0
delete_atoms region delete
Deleted 0 atoms, new total = 2730
Setting up run at Tue Oct  5 09:40:32 2021

WARNING: Energy calculated for multisphere particles is currently not correct (../fix_multisphere.cpp:1312)
Memory usage per processor = 18.6572 Mbytes
    Step    Atoms         KinEng              1          ts[1]          ts[2]         Volume 
    9201     2730    0.017124365              0    0.091379875    0.035696692           0.18 
    9401     2730    0.017906154              0    0.091379875    0.035696692           0.18 
Loop time of 0.0201922 on 4 procs for 200 steps with 2730 atoms, finish time Tue Oct  5 09:40:32 2021


Pair  time (%) = 0.000906875 (4.49122)
Neigh time (%) = 0.00248957 (12.3294)
Comm  time (%) = 0.00101105 (5.00714)
Outpt time (%) = 0.00068655 (3.40008)
Other time (%) = 0.0150981 (74.7722)

Nlocal:    682.5 ave 1050 max 490 min
Histogram: 1 1 1 0 0 0 0 0 0 1
Nghost:    39.75 ave 117 max 0 min
Histogram: 2 0 0 1 0 0 0 0 0 1
Neighs:    2.25 ave 9 max 0 min
Histogram: 3 0 0 0 0 0 0 0 0 1

Total # of neighbors = 9
Ave neighs/atom = 0.0032967
Neighbor list builds = 1
Dangerous builds = 0
delete_atoms region delete
Deleted 0 atoms, new total = 2730
Setting up run at Tue Oct  5 09:40:32 2021

WARNING: Energy calculated for multisphere particles is currently not correct (../fix_multisphere.cpp:1312)
Memory usage per processor = 18.6603 Mbytes
    Step    Atoms         KinEng              1          ts[1]          ts[2]         Volume 
    9401     2730    0.017906154              0    0.091379875    0.035696692           0.18 
INFO: Particle insertion ins: inserted 1 particle templates (mass 1.353404e-03) at step 9601
 - a total of 40 particle templates (mass 5.413614e-02) inserted so far.
    9601     2800    0.018708261              0    0.091379875    0.035696692           0.18 
Loop time of 0.0241147 on 4 procs for 200 steps with 2800 atoms, finish time Tue Oct  5 09:40:32 2021


Pair  time (%) = 0.00089895 (3.72782)
Neigh time (%) = 0.00278743 (11.5591)
Comm  time (%) = 0.000973825 (4.03831)
Outpt time (%) = 0.000670725 (2.7814)
Other time (%) = 0.0187837 (77.8934)

Nlocal:    700 ave 1120 max 490 min
Histogram: 1 1 1 0 0 0 0 0 0 1
Nghost:    39.75 ave 117 max 0 min
Histogram: 2 0 0 1 0 0 0 0 0 1
Neighs:    5 ave 20 max 0 min
Histogram: 3 0 0 0 0 0 0 0 0 1

Total # of neighbors = 20
Ave neighs/atom = 0.00714286
Neighbor list builds = 1
Dangerous builds = 0
delete_atoms region delete
Deleted 0 atoms, new total = 2800
Setting up run at Tue Oct  5 09:40:32 2021

WARNING: Energy calculated for multisphere particles is currently not correct (../fix_multisphere.cpp:1312)
Memory usage per processor = 18.6606 Mbytes
    Step    Atoms         KinEng              1          ts[1]          ts[2]         Volume 
    9601     2800    0.018708261              0    0.091379875    0.035696692           0.18 
    9801     2800    0.019530949              0    0.091379875    0.035696692           0.18 
Loop time of 0.0241656 on 4 procs for 200 steps with 2800 atoms, finish time Tue Oct  5 09:40:32 2021


Pair  time (%) = 0.000916425 (3.79227)
Neigh time (%) = 0.00264855 (10.96)
Comm  time (%) = 0.000841875 (3.48378)
Outpt time (%) = 0.000771125 (3.19101)
Other time (%) = 0.0189876 (78.5729)

Nlocal:    700 ave 1120 max 490 min
Histogram: 1 1 1 0 0 0 0 0 0 1
Nghost:    39.75 ave 117 max 0 min
Histogram: 2 0 0 1 0 0 0 0 0 1
Neighs:    9.25 ave 37 max 0 min
Histogram: 3 0 0 0 0 0 0 0 0 1

Total # of neighbors = 37
Ave neighs/atom = 0.0132143
Neighbor list builds = 1
Dangerous builds = 0
delete_atoms region delete
Deleted 0 atoms, new total = 2800
Setting up run at Tue Oct  5 09:40:32 2021

WARNING: Energy calculated for multisphere particles is currently not correct (../fix_multisphere.cpp:1312)
Memory usage per processor = 18.6637 Mbytes
    Step    Atoms         KinEng              1          ts[1]          ts[2]         Volume 
    9801     2800    0.019530949              0    0.091379875    0.035696692           0.18 
   10000     2800    0.020370206              0    0.091379875    0.036456918           0.18 
INFO: Particle insertion ins: inserted 2 particle templates (mass 2.706807e-03) at step 10001
 - a total of 42 particle templates (mass 5.684295e-02) inserted so far.
   10001     2940    0.020374476              0    0.091379875    0.036456918           0.18 
Loop time of 0.0373906 on 4 procs for 200 steps with 2940 atoms, finish time Tue Oct  5 09:40:32 2021


Pair  time (%) = 0.00095755 (2.56094)
Neigh time (%) = 0.00279045 (7.46298)
Comm  time (%) = 0.00122315 (3.27128)
Outpt time (%) = 0.00108607 (2.90468)
Other time (%) = 0.0313333 (83.8001)

Nlocal:    735 ave 1120 max 490 min
Histogram: 1 1 0 0 1 0 0 0 0 1
Nghost:    57 ave 117 max 0 min
Histogram: 2 0 0 0 0 0 0 0 0 2
Neighs:    13 ave 52 max 0 min
Histogram: 3 0 0 0 0 0 0 0 0 1

Total # of neighbors = 52
Ave neighs/atom = 0.0176871
Neighbor list builds = 1
Dangerous builds = 0
delete_atoms region delete
Deleted 4 atoms, new total = 2936
Setting up run at Tue Oct  5 09:40:32 2021

WARNING: Energy calculated for multisphere particles is currently not correct (../fix_multisphere.cpp:1312)
Memory usage per processor = 18.6642 Mbytes
    Step    Atoms         KinEng              1          ts[1]          ts[2]         Volume 
   10001     2936    0.020336872              0    0.091379875    0.036456918           0.18 
INFO: Particle insertion ins: inserted 3 particle templates (mass 4.060211e-03) at step 10201
 - a total of 45 particle templates (mass 6.090316e-02) inserted so far.
   10201     3080    0.020561758              0    0.091379875    0.036456918           0.18 
Loop time of 0.0331112 on 4 procs for 200 steps with 3080 atoms, finish time Tue Oct  5 09:40:32 2021


Pair  time (%) = 0.0010218 (3.08597)
Neigh time (%) = 0.00589617 (17.8072)
Comm  time (%) = 0.0011928 (3.60241)
Outpt time (%) = 0.00077945 (2.35404)
Other time (%) = 0.0242209 (73.1504)

Nlocal:    770 ave 1120 max 560 min
Histogram: 2 0 0 0 0 1 0 0 0 1
Nghost:    57 ave 117 max 0 min
Histogram: 2 0 0 0 0 0 0 0 0 2
Neighs:    18 ave 72 max 0 min
Histogram: 3 0 0 0 0 0 0 0 0 1

Total # of neighbors = 72
Ave neighs/atom = 0.0233766
Neighbor list builds = 2
Dangerous builds = 0
delete_atoms region delete
Deleted 1 atoms, new total = 3079
Setting up run at Tue Oct  5 09:40:32 2021

WARNING: Energy calculated for multisphere particles is currently not correct (../fix_multisphere.cpp:1312)
Memory usage per processor = 18.6661 Mbytes
    Step    Atoms         KinEng              1          ts[1]          ts[2]         Volume 
   10201     3079    0.020552001              0    0.091379875    0.036456918           0.18 
INFO: Particle insertion ins: inserted 1 particle templates (mass 1.353404e-03) at step 10401
 - a total of 46 particle templates (mass 6.225656e-02) inserted so far.
   10401     3080    0.020615922              0    0.091379875    0.036456918           0.18 
Loop time of 0.0402999 on 4 procs for 200 steps with 3080 atoms, finish time Tue Oct  5 09:40:32 2021


Pair  time (%) = 0.0011657 (2.89256)
Neigh time (%) = 0.00902165 (22.3863)
Comm  time (%) = 0.00124797 (3.09672)
Outpt time (%) = 0.00082635 (2.0505)
Other time (%) = 0.0280383 (69.574)

Nlocal:    770 ave 1120 max 560 min
Histogram: 2 0 0 0 0 1 0 0 0 1
Nghost:    54.75 ave 117 max 0 min
Histogram: 2 0 0 0 0 0 0 0 1 1
Neighs:    19.25 ave 77 max 0 min
Histogram: 3 0 0 0 0 0 0 0 0 1

Total # of neighbors = 77
Ave neighs/atom = 0.025
Neighbor list builds = 3
Dangerous builds = 0
delete_atoms region delete
Deleted 0 atoms, new total = 3080
Setting up run at Tue Oct  5 09:40:32 2021

WARNING: Energy calculated for multisphere particles is currently not correct (../fix_multisphere.cpp:1312)
Memory usage per processor = 18.6661 Mbytes
    Step    Atoms         KinEng              1          ts[1]          ts[2]         Volume 
   10401     3080    0.020615922              0    0.091379875    0.036456918           0.18 
INFO: Particle insertion ins: inserted 1 particle templates (mass 1.353404e-03) at step 10601
 - a total of 47 particle templates (mass 6.360996e-02) inserted so far.
   10601     3150    0.021468453              0    0.091379875    0.036456918           0.18 
Loop time of 0.0280942 on 4 procs for 200 steps with 3150 atoms, finish time Tue Oct  5 09:40:32 2021


Pair  time (%) = 0.00101793 (3.62325)
Neigh time (%) = 0.00570348 (20.3012)
Comm  time (%) = 0.000976475 (3.47571)
Outpt time (%) = 0.000725125 (2.58104)
Other time (%) = 0.0196713 (70.0188)

Nlocal:    787.5 ave 1120 max 560 min
Histogram: 2 0 0 0 0 0 1 0 0 1
Nghost:    54.75 ave 117 max 0 min
Histogram: 2 0 0 0 0 0 0 0 1 1
Neighs:    16.25 ave 65 max 0 min
Histogram: 3 0 0 0 0 0 0 0 0 1

Total # of neighbors = 65
Ave neighs/atom = 0.0206349
Neighbor list builds = 2
Dangerous builds = 0
delete_atoms region delete
Deleted 0 atoms, new total = 3150
Setting up run at Tue Oct  5 09:40:32 2021

WARNING: Energy calculated for multisphere particles is currently not correct (../fix_multisphere.cpp:1312)
Memory usage per processor = 18.6677 Mbytes
    Step    Atoms         KinEng              1          ts[1]          ts[2]         Volume 
   10601     3150    0.021468453              0    0.091379875    0.036456918           0.18 
INFO: Particle insertion ins: inserted 1 particle templates (mass 1.353404e-03) at step 10801
 - a total of 48 particle templates (mass 6.496337e-02) inserted so far.
   10801     3220    0.022348195              0    0.091379875    0.036456918           0.18 
Loop time of 0.0286869 on 4 procs for 200 steps with 3220 atoms, finish time Tue Oct  5 09:40:32 2021


Pair  time (%) = 0.0010263 (3.57759)
Neigh time (%) = 0.0056917 (19.8408)
Comm  time (%) = 0.00103328 (3.60191)
Outpt time (%) = 0.0007085 (2.46977)
Other time (%) = 0.0202271 (70.5099)

Nlocal:    805 ave 1120 max 560 min
Histogram: 1 1 0 0 0 0 1 0 0 1
Nghost:    54.5 ave 116 max 0 min
Histogram: 2 0 0 0 0 0 0 0 1 1
Neighs:    12.75 ave 51 max 0 min
Histogram: 3 0 0 0 0 0 0 0 0 1

Total # of neighbors = 51
Ave neighs/atom = 0.0158385
Neighbor list builds = 2
Dangerous builds = 0
delete_atoms region delete
Deleted 0 atoms, new total = 3220
Setting up run at Tue Oct  5 09:40:32 2021

WARNING: Energy calculated for multisphere particles is currently not correct (../fix_multisphere.cpp:1312)
Memory usage per processor = 18.6689 Mbytes
    Step    Atoms         KinEng              1          ts[1]          ts[2]         Volume 
   10801     3220    0.022348195              0    0.091379875    0.036456918           0.18 
   11000     3220    0.023247066              0    0.091379875    0.038466974           0.18 
INFO: Particle insertion ins: inserted 1 particle templates (mass 1.353404e-03) at step 11001
 - a total of 49 particle templates (mass 6.631677e-02) inserted so far.
   11001     3290    0.023251643              0    0.091379875    0.038466974           0.18 
Loop time of 0.0278991 on 4 procs for 200 steps with 3290 atoms, finish time Tue Oct  5 09:40:32 2021


Pair  time (%) = 0.00103798 (3.72046)
Neigh time (%) = 0.00575892 (20.642)
Comm  time (%) = 0.000934125 (3.34822)
Outpt time (%) = 0.0008498 (3.04597)
Other time (%) = 0.0193183 (69.2434)

Nlocal:    822.5 ave 1190 max 560 min
Histogram: 1 1 0 0 0 1 0 0 0 1
Nghost:    54.25 ave 115 max 0 min
Histogram: 2 0 0 0 0 0 0 0 1 1
Neighs:    8 ave 32 max 0 min
Histogram: 3 0 0 0 0 0 0 0 0 1

Total # of neighbors = 32
Ave neighs/atom = 0.00972644
Neighbor list builds = 2
Dangerous builds = 0
delete_atoms region delete
Deleted 0 atoms, new total = 3290
Setting up run at Tue Oct  5 09:40:32 2021

WARNING: Energy calculated for multisphere particles is currently not correct (../fix_multisphere.cpp:1312)
Memory usage per processor = 18.6701 Mbytes
    Step    Atoms         KinEng              1          ts[1]          ts[2]         Volume 
   11001     3290    0.023251643              0    0.091379875    0.038466974           0.18 
   11201     3290    0.024179318              0    0.091379875    0.038466974           0.18 
Loop time of 0.024919 on 4 procs for 200 steps with 3290 atoms, finish time Tue Oct  5 09:40:32 2021


Pair  time (%) = 0.00105198 (4.22158)
Neigh time (%) = 0.00567907 (22.7902)
Comm  time (%) = 0.0009794 (3.93034)
Outpt time (%) = 0.000819025 (3.28675)
Other time (%) = 0.0163895 (65.7712)

Nlocal:    822.5 ave 1190 max 560 min
Histogram: 1 1 0 0 0 1 0 0 0 1
Nghost:    54.25 ave 115 max 0 min
Histogram: 2 0 0 0 0 0 0 0 1 1
Neighs:    5.75 ave 23 max 0 min
Histogram: 3 0 0 0 0 0 0 0 0 1

Total # of neighbors = 23
Ave neighs/atom = 0.00699088
Neighbor list builds = 2
Dangerous builds = 0
delete_atoms region delete
Deleted 0 atoms, new total = 3290
Setting up run at Tue Oct  5 09:40:32 2021

WARNING: Energy calculated for multisphere particles is currently not correct (../fix_multisphere.cpp:1312)
Memory usage per processor = 18.6733 Mbytes
    Step    Atoms         KinEng              1          ts[1]          ts[2]         Volume 
   11201     3290    0.024179318              0    0.091379875    0.038466974           0.18 
INFO: Particle insertion ins: inserted 4 particle templates (mass 5.413614e-03) at step 11401
 - a total of 53 particle templates (mass 7.173039e-02) inserted so far.
   11401     3570    0.025131479              0    0.091379875    0.038466974           0.18 
Loop time of 0.0295508 on 4 procs for 200 steps with 3570 atoms, finish time Tue Oct  5 09:40:32 2021


Pair  time (%) = 0.00103275 (3.49483)
Neigh time (%) = 0.00601803 (20.365)
Comm  time (%) = 0.0010683 (3.61513)
Outpt time (%) = 0.00076325 (2.58284)
Other time (%) = 0.0206685 (69.9422)

Nlocal:    892.5 ave 1260 max 630 min
Histogram: 1 0 1 0 1 0 0 0 0 1
Nghost:    54.25 ave 115 max 0 min
Histogram: 2 0 0 0 0 0 0 0 1 1
Neighs:    2.75 ave 11 max 0 min
Histogram: 3 0 0 0 0 0 0 0 0 1

Total # of neighbors = 11
Ave neighs/atom = 0.00308123
Neighbor list builds = 2
Dangerous builds = 0
delete_atoms region delete
Deleted 18 atoms, new total = 3552
Setting up run at Tue Oct  5 09:40:32 2021

WARNING: Energy calculated for multisphere particles is currently not correct (../fix_multisphere.cpp:1312)
Memory usage per processor = 18.6748 Mbytes
    Step    Atoms         KinEng              1          ts[1]          ts[2]         Volume 
   11401     3552     0.02491372              0    0.091379875    0.038466974           0.18 
   11601     3430    0.024356429              0    0.091379875    0.038466974           0.18 
Loop time of 0.0293076 on 4 procs for 200 steps with 3430 atoms, finish time Tue Oct  5 09:40:32 2021


Pair  time (%) = 0.00108835 (3.71354)
Neigh time (%) = 0.0079081 (26.9831)
Comm  time (%) = 0.0010228 (3.48988)
Outpt time (%) = 0.00087165 (2.97414)
Other time (%) = 0.0184167 (62.8393)

Nlocal:    857.5 ave 1260 max 560 min
Histogram: 1 0 0 1 1 0 0 0 0 1
Nghost:    54.25 ave 115 max 0 min
Histogram: 2 0 0 0 0 0 0 0 1 1
Neighs:    1 ave 4 max 0 min
Histogram: 3 0 0 0 0 0 0 0 0 1

Total # of neighbors = 4
Ave neighs/atom = 0.00116618
Neighbor list builds = 3
Dangerous builds = 0
delete_atoms region delete
Deleted 0 atoms, new total = 3430
Setting up run at Tue Oct  5 09:40:32 2021

WARNING: Energy calculated for multisphere particles is currently not correct (../fix_multisphere.cpp:1312)
Memory usage per processor = 18.678 Mbytes
    Step    Atoms         KinEng              1          ts[1]          ts[2]         Volume 
   11601     3430    0.024356429              0    0.091379875    0.038466974           0.18 
   11801     3430    0.025299737              0    0.091379875    0.038466974           0.18 
Loop time of 0.0289139 on 4 procs for 200 steps with 3430 atoms, finish time Tue Oct  5 09:40:32 2021


Pair  time (%) = 0.00110708 (3.82887)
Neigh time (%) = 0.00542657 (18.768)
Comm  time (%) = 0.00118115 (4.08506)
Outpt time (%) = 0.00154572 (5.34596)
Other time (%) = 0.0196534 (67.9721)

Nlocal:    857.5 ave 1260 max 560 min
Histogram: 1 0 0 1 1 0 0 0 0 1
Nghost:    54.25 ave 115 max 0 min
Histogram: 2 0 0 0 0 0 0 0 1 1
Neighs:    0.25 ave 1 max 0 min
Histogram: 3 0 0 0 0 0 0 0 0 1

Total # of neighbors = 1
Ave neighs/atom = 0.000291545
Neighbor list builds = 2
Dangerous builds = 0
delete_atoms region delete
Deleted 0 atoms, new total = 3430
Setting up run at Tue Oct  5 09:40:32 2021

WARNING: Energy calculated for multisphere particles is currently not correct (../fix_multisphere.cpp:1312)
Memory usage per processor = 18.6787 Mbytes
    Step    Atoms         KinEng              1          ts[1]          ts[2]         Volume 
   11801     3430    0.025299737              0    0.091379875    0.038466974           0.18 
   12000     3430    0.026263665              0    0.091379875    0.039049341           0.18 
   12001     3430    0.026268572              0    0.091379875    0.039049341           0.18 
Loop time of 0.0292641 on 4 procs for 200 steps with 3430 atoms, finish time Tue Oct  5 09:40:32 2021


Pair  time (%) = 0.00111975 (3.82636)
Neigh time (%) = 0.00545863 (18.653)
Comm  time (%) = 0.00156763 (5.35682)
Outpt time (%) = 0.000822825 (2.81172)
Other time (%) = 0.0202952 (69.3521)

Nlocal:    857.5 ave 1260 max 560 min
Histogram: 1 0 0 1 1 0 0 0 0 1
Nghost:    54.25 ave 115 max 0 min
Histogram: 2 0 0 0 0 0 0 0 1 1
Neighs:    0 ave 0 max 0 min
Histogram: 4 0 0 0 0 0 0 0 0 0

Total # of neighbors = 0
Ave neighs/atom = 0
Neighbor list builds = 2
Dangerous builds = 0
delete_atoms region delete
Deleted 0 atoms, new total = 3430
Setting up run at Tue Oct  5 09:40:32 2021

WARNING: Energy calculated for multisphere particles is currently not correct (../fix_multisphere.cpp:1312)
Memory usage per processor = 18.6787 Mbytes
    Step    Atoms         KinEng              1          ts[1]          ts[2]         Volume 
   12001     3430    0.026268572              0    0.091379875    0.039049341           0.18 
INFO: Particle insertion ins: inserted 1 particle templates (mass 1.353404e-03) at step 12201
 - a total of 54 particle templates (mass 7.308379e-02) inserted so far.
   12201     3500    0.027262936              0    0.091379875    0.039049341           0.18 
Loop time of 0.0293874 on 4 procs for 200 steps with 3500 atoms, finish time Tue Oct  5 09:40:32 2021


Pair  time (%) = 0.00104965 (3.57176)
Neigh time (%) = 0.00568723 (19.3526)
Comm  time (%) = 0.0010223 (3.4787)
Outpt time (%) = 0.00077295 (2.6302)
Other time (%) = 0.0208553 (70.9668)

Nlocal:    875 ave 1260 max 630 min
Histogram: 1 0 1 1 0 0 0 0 0 1
Nghost:    54.25 ave 115 max 0 min
Histogram: 2 0 0 0 0 0 0 0 1 1
Neighs:    0 ave 0 max 0 min
Histogram: 4 0 0 0 0 0 0 0 0 0

Total # of neighbors = 0
Ave neighs/atom = 0
Neighbor list builds = 2
Dangerous builds = 0
delete_atoms region delete
Deleted 0 atoms, new total = 3500
Setting up run at Tue Oct  5 09:40:32 2021

WARNING: Energy calculated for multisphere particles is currently not correct (../fix_multisphere.cpp:1312)
Memory usage per processor = 18.6789 Mbytes
    Step    Atoms         KinEng              1          ts[1]          ts[2]         Volume 
   12201     3500    0.027262936              0    0.091379875    0.039049341           0.18 
   12401     3500     0.02828309              0    0.091379875    0.039049341           0.18 
Loop time of 0.0252333 on 4 procs for 200 steps with 3500 atoms, finish time Tue Oct  5 09:40:32 2021


Pair  time (%) = 0.00106637 (4.22605)
Neigh time (%) = 0.005223 (20.6988)
Comm  time (%) = 0.000979675 (3.88246)
Outpt time (%) = 0.00089455 (3.54511)
Other time (%) = 0.0170698 (67.6476)

Nlocal:    875 ave 1260 max 630 min
Histogram: 1 0 1 1 0 0 0 0 0 1
Nghost:    54.25 ave 115 max 0 min
Histogram: 2 0 0 0 0 0 0 0 1 1
Neighs:    0 ave 0 max 0 min
Histogram: 4 0 0 0 0 0 0 0 0 0

Total # of neighbors = 0
Ave neighs/atom = 0
Neighbor list builds = 2
Dangerous builds = 0
delete_atoms region delete
Deleted 7 atoms, new total = 3493
Setting up run at Tue Oct  5 09:40:32 2021

WARNING: Energy calculated for multisphere particles is currently not correct (../fix_multisphere.cpp:1312)
Memory usage per processor = 18.6795 Mbytes
    Step    Atoms         KinEng              1          ts[1]          ts[2]         Volume 
   12401     3493    0.028182973              0    0.091379875    0.039049341           0.18 
   12601     3430    0.028295316              0    0.091379875    0.039049341           0.18 
Loop time of 0.0277415 on 4 procs for 200 steps with 3430 atoms, finish time Tue Oct  5 09:40:32 2021


Pair  time (%) = 0.0010704 (3.85848)
Neigh time (%) = 0.00769 (27.7202)
Comm  time (%) = 0.00101775 (3.66869)
Outpt time (%) = 0.00080715 (2.90954)
Other time (%) = 0.0171562 (61.8431)

Nlocal:    857.5 ave 1260 max 630 min
Histogram: 1 1 0 1 0 0 0 0 0 1
Nghost:    54.25 ave 115 max 0 min
Histogram: 2 0 0 0 0 0 0 0 1 1
Neighs:    0 ave 0 max 0 min
Histogram: 4 0 0 0 0 0 0 0 0 0

Total # of neighbors = 0
Ave neighs/atom = 0
Neighbor list builds = 3
Dangerous builds = 0
delete_atoms region delete
Deleted 9 atoms, new total = 3421
Setting up run at Tue Oct  5 09:40:32 2021

WARNING: Energy calculated for multisphere particles is currently not correct (../fix_multisphere.cpp:1312)
Memory usage per processor = 18.6792 Mbytes
    Step    Atoms         KinEng              1          ts[1]          ts[2]         Volume 
   12601     3421    0.028161629              0    0.091379875    0.039049341           0.18 
   12801     3290    0.027200363              0    0.091379875    0.039049341           0.18 
Loop time of 0.0267046 on 4 procs for 200 steps with 3290 atoms, finish time Tue Oct  5 09:40:32 2021


[...]
Outpt time (%) = 0.000743725 (2.50292)
Other time (%) = 0.017944 (60.3883)

Nlocal:    752.5 ave 980 max 630 min
Histogram: 2 0 0 0 1 0 0 0 0 1
Nghost:    46.5 ave 69 max 1 min
Histogram: 1 0 0 0 0 0 1 0 0 2
Neighs:    10 ave 40 max 0 min
Histogram: 3 0 0 0 0 0 0 0 0 1

Total # of neighbors = 40
Ave neighs/atom = 0.013289
Neighbor list builds = 3
Dangerous builds = 0
delete_atoms region delete
Deleted 2 atoms, new total = 3008
Setting up run at Tue Oct  5 09:40:36 2021

WARNING: Energy calculated for multisphere particles is currently not correct (../fix_multisphere.cpp:1312)
Memory usage per processor = 18.6933 Mbytes
    Step    Atoms         KinEng              1          ts[1]          ts[2]         Volume 
   36801     3008    0.018313628              0    0.091379875    0.039323476           0.18 
   37000     2940    0.017632672              0    0.091379875    0.039847991           0.18 
   37001     2940    0.017636457              0    0.091379875    0.039847991           0.18 
Loop time of 0.0270441 on 4 procs for 200 steps with 2940 atoms, finish time Tue Oct  5 09:40:36 2021


Pair  time (%) = 0.0010838 (4.00753)
Neigh time (%) = 0.00843243 (31.1803)
Comm  time (%) = 0.0013977 (5.16823)
Outpt time (%) = 0.000762125 (2.81808)
Other time (%) = 0.0153681 (56.8259)

Nlocal:    735 ave 980 max 560 min
Histogram: 1 1 0 0 0 1 0 0 0 1
Nghost:    46.5 ave 69 max 1 min
Histogram: 1 0 0 0 0 0 1 0 0 2
Neighs:    12.75 ave 51 max 0 min
Histogram: 3 0 0 0 0 0 0 0 0 1

Total # of neighbors = 51
Ave neighs/atom = 0.0173469
Neighbor list builds = 3
Dangerous builds = 0
delete_atoms region delete
Deleted 28 atoms, new total = 2912
Setting up run at Tue Oct  5 09:40:36 2021

WARNING: Energy calculated for multisphere particles is currently not correct (../fix_multisphere.cpp:1312)
Memory usage per processor = 18.693 Mbytes
    Step    Atoms         KinEng              1          ts[1]          ts[2]         Volume 
   37001     2912    0.017182107              0    0.091379875    0.039847991           0.18 
INFO: Particle insertion ins: inserted 1 particle templates (mass 1.353404e-03) at step 37201
 - a total of 135 particle templates (mass 1.827095e-01) inserted so far.
   37201     2940    0.017235005              0    0.091379875    0.039847991           0.18 
Loop time of 0.0284914 on 4 procs for 200 steps with 2940 atoms, finish time Tue Oct  5 09:40:36 2021


Pair  time (%) = 0.00094845 (3.32891)
Neigh time (%) = 0.00852933 (29.9365)
Comm  time (%) = 0.000851325 (2.98801)
Outpt time (%) = 0.0008061 (2.82928)
Other time (%) = 0.0173562 (60.9173)

Nlocal:    735 ave 980 max 560 min
Histogram: 1 0 0 2 0 0 0 0 0 1
Nghost:    29.5 ave 69 max 0 min
Histogram: 2 0 0 0 0 0 1 0 0 1
Neighs:    18 ave 72 max 0 min
Histogram: 3 0 0 0 0 0 0 0 0 1

Total # of neighbors = 72
Ave neighs/atom = 0.0244898
Neighbor list builds = 3
Dangerous builds = 0
delete_atoms region delete
Deleted 0 atoms, new total = 2940
Setting up run at Tue Oct  5 09:40:36 2021

WARNING: Energy calculated for multisphere particles is currently not correct (../fix_multisphere.cpp:1312)
Memory usage per processor = 18.6931 Mbytes
    Step    Atoms         KinEng              1          ts[1]          ts[2]         Volume 
   37201     2940    0.017235005              0    0.091379875    0.039847991           0.18 
INFO: Particle insertion ins: inserted 1 particle templates (mass 1.353404e-03) at step 37401
 - a total of 136 particle templates (mass 1.840629e-01) inserted so far.
   37401     3010    0.017989967              0    0.091379875    0.039847991           0.18 
Loop time of 0.0253774 on 4 procs for 200 steps with 3010 atoms, finish time Tue Oct  5 09:40:36 2021


Pair  time (%) = 0.000987425 (3.89097)
Neigh time (%) = 0.005555 (21.8896)
Comm  time (%) = 0.000932375 (3.67404)
Outpt time (%) = 0.000680375 (2.68103)
Other time (%) = 0.0172222 (67.8644)

Nlocal:    752.5 ave 980 max 560 min
Histogram: 1 0 0 1 0 1 0 0 0 1
Nghost:    29.5 ave 69 max 0 min
Histogram: 2 0 0 0 0 0 1 0 0 1
Neighs:    26.5 ave 106 max 0 min
Histogram: 3 0 0 0 0 0 0 0 0 1

Total # of neighbors = 106
Ave neighs/atom = 0.0352159
Neighbor list builds = 2
Dangerous builds = 0
delete_atoms region delete
Deleted 0 atoms, new total = 3010
Setting up run at Tue Oct  5 09:40:36 2021

WARNING: Energy calculated for multisphere particles is currently not correct (../fix_multisphere.cpp:1312)
Memory usage per processor = 18.6933 Mbytes
    Step    Atoms         KinEng              1          ts[1]          ts[2]         Volume 
   37401     3010    0.017989967              0    0.091379875    0.039847991           0.18 
INFO: Particle insertion ins: inserted 1 particle templates (mass 1.353404e-03) at step 37601
 - a total of 137 particle templates (mass 1.854163e-01) inserted so far.
   37601     3080    0.018767073              0    0.091379875    0.039847991           0.18 
Loop time of 0.0255379 on 4 procs for 200 steps with 3080 atoms, finish time Tue Oct  5 09:40:36 2021


Pair  time (%) = 0.0010196 (3.99249)
Neigh time (%) = 0.0053644 (21.0056)
Comm  time (%) = 0.000934325 (3.65857)
Outpt time (%) = 0.000698475 (2.73505)
Other time (%) = 0.0175212 (68.6083)

Nlocal:    770 ave 1050 max 560 min
Histogram: 1 0 1 0 1 0 0 0 0 1
Nghost:    29.5 ave 69 max 0 min
Histogram: 2 0 0 0 0 0 1 0 0 1
Neighs:    34.5 ave 138 max 0 min
Histogram: 3 0 0 0 0 0 0 0 0 1

Total # of neighbors = 138
Ave neighs/atom = 0.0448052
Neighbor list builds = 2
Dangerous builds = 0
delete_atoms region delete
Deleted 0 atoms, new total = 3080
Setting up run at Tue Oct  5 09:40:36 2021

WARNING: Energy calculated for multisphere particles is currently not correct (../fix_multisphere.cpp:1312)
Memory usage per processor = 18.6939 Mbytes
    Step    Atoms         KinEng              1          ts[1]          ts[2]         Volume 
   37601     3080    0.018767073              0    0.091379875    0.039847991           0.18 
   37801     3080    0.019542545              0    0.091379875    0.039847991           0.18 
Loop time of 0.0228947 on 4 procs for 200 steps with 3080 atoms, finish time Tue Oct  5 09:40:36 2021


Pair  time (%) = 0.00106523 (4.65271)
Neigh time (%) = 0.00524975 (22.93)
Comm  time (%) = 0.000832425 (3.63589)
Outpt time (%) = 0.000726875 (3.17486)
Other time (%) = 0.0150204 (65.6066)

Nlocal:    770 ave 1050 max 560 min
Histogram: 1 0 1 0 1 0 0 0 0 1
Nghost:    29.5 ave 69 max 0 min
Histogram: 2 0 0 0 0 0 1 0 0 1
Neighs:    35.75 ave 143 max 0 min
Histogram: 3 0 0 0 0 0 0 0 0 1

Total # of neighbors = 143
Ave neighs/atom = 0.0464286
Neighbor list builds = 2
Dangerous builds = 0
delete_atoms region delete
Deleted 2 atoms, new total = 3078
Setting up run at Tue Oct  5 09:40:36 2021

WARNING: Energy calculated for multisphere particles is currently not correct (../fix_multisphere.cpp:1312)
Memory usage per processor = 18.6941 Mbytes
    Step    Atoms         KinEng              1          ts[1]          ts[2]         Volume 
   37801     3078    0.019492254              0    0.091379875    0.039847991           0.18 
   38000     3010    0.018566746              0    0.091379875    0.039847991           0.18 
   38001     3010    0.018570701              0    0.091379875    0.039847991           0.18 
Loop time of 0.0249033 on 4 procs for 200 steps with 3010 atoms, finish time Tue Oct  5 09:40:36 2021


Pair  time (%) = 0.0010336 (4.15046)
Neigh time (%) = 0.00772232 (31.0093)
Comm  time (%) = 0.00085635 (3.4387)
Outpt time (%) = 0.0008356 (3.35538)
Other time (%) = 0.0144554 (58.0462)

Nlocal:    752.5 ave 1050 max 560 min
Histogram: 1 0 2 0 0 0 0 0 0 1
Nghost:    29.5 ave 69 max 0 min
Histogram: 2 0 0 0 0 0 1 0 0 1
Neighs:    34.5 ave 138 max 0 min
Histogram: 3 0 0 0 0 0 0 0 0 1

Total # of neighbors = 138
Ave neighs/atom = 0.0458472
Neighbor list builds = 3
Dangerous builds = 0
delete_atoms region delete
Deleted 2 atoms, new total = 3008
Setting up run at Tue Oct  5 09:40:36 2021

WARNING: Energy calculated for multisphere particles is currently not correct (../fix_multisphere.cpp:1312)
Memory usage per processor = 18.6939 Mbytes
    Step    Atoms         KinEng              1          ts[1]          ts[2]         Volume 
   38001     3008    0.018527202              0    0.091379875    0.039847991           0.18 
   38201     2940    0.017828253              0    0.091379875    0.039847991           0.18 
Loop time of 0.0249136 on 4 procs for 200 steps with 2940 atoms, finish time Tue Oct  5 09:40:36 2021


Pair  time (%) = 0.00102355 (4.1084)
Neigh time (%) = 0.00782642 (31.4143)
Comm  time (%) = 0.0008477 (3.40256)
Outpt time (%) = 0.000709325 (2.84714)
Other time (%) = 0.0145066 (58.2276)

Nlocal:    735 ave 1050 max 560 min
Histogram: 1 1 1 0 0 0 0 0 0 1
Nghost:    29.5 ave 69 max 0 min
Histogram: 2 0 0 0 0 0 1 0 0 1
Neighs:    34 ave 136 max 0 min
Histogram: 3 0 0 0 0 0 0 0 0 1

Total # of neighbors = 136
Ave neighs/atom = 0.0462585
Neighbor list builds = 3
Dangerous builds = 0
delete_atoms region delete
Deleted 20 atoms, new total = 2920
Setting up run at Tue Oct  5 09:40:36 2021

WARNING: Energy calculated for multisphere particles is currently not correct (../fix_multisphere.cpp:1312)
Memory usage per processor = 18.6935 Mbytes
    Step    Atoms         KinEng              1          ts[1]          ts[2]         Volume 
   38201     2920    0.017363219              0    0.091379875    0.039847991           0.18 
   38401     2870    0.016945133              0    0.091379875    0.039847991           0.18 
Loop time of 0.025898 on 4 procs for 200 steps with 2870 atoms, finish time Tue Oct  5 09:40:36 2021


Pair  time (%) = 0.000993575 (3.83649)
Neigh time (%) = 0.00823455 (31.796)
Comm  time (%) = 0.000898775 (3.47044)
Outpt time (%) = 0.00067955 (2.62394)
Other time (%) = 0.0150916 (58.2731)

Nlocal:    717.5 ave 1050 max 490 min
Histogram: 1 0 1 1 0 0 0 0 0 1
Nghost:    29.5 ave 69 max 0 min
Histogram: 2 0 0 0 0 0 1 0 0 1
Neighs:    33.25 ave 133 max 0 min
Histogram: 3 0 0 0 0 0 0 0 0 1

Total # of neighbors = 133
Ave neighs/atom = 0.0463415
Neighbor list builds = 3
Dangerous builds = 0
delete_atoms region delete
Deleted 2 atoms, new total = 2868
Setting up run at Tue Oct  5 09:40:36 2021

WARNING: Energy calculated for multisphere particles is currently not correct (../fix_multisphere.cpp:1312)
Memory usage per processor = 18.6933 Mbytes
    Step    Atoms         KinEng              1          ts[1]          ts[2]         Volume 
   38401     2868    0.016898455              0    0.091379875    0.039847991           0.18 
INFO: Particle insertion ins: inserted 1 particle templates (mass 1.353404e-03) at step 38601
 - a total of 138 particle templates (mass 1.867697e-01) inserted so far.
   38601     2870    0.016041955              0    0.091379875    0.039847991           0.18 
Loop time of 0.0291184 on 4 procs for 200 steps with 2870 atoms, finish time Tue Oct  5 09:40:36 2021


Pair  time (%) = 0.0009882 (3.39373)
Neigh time (%) = 0.00856693 (29.421)
Comm  time (%) = 0.000873425 (2.99956)
Outpt time (%) = 0.00069215 (2.37702)
Other time (%) = 0.0179977 (61.8087)

Nlocal:    717.5 ave 1050 max 420 min
Histogram: 1 0 0 0 2 0 0 0 0 1
Nghost:    29.5 ave 69 max 0 min
Histogram: 2 0 0 0 0 0 1 0 0 1
Neighs:    32.75 ave 131 max 0 min
Histogram: 3 0 0 0 0 0 0 0 0 1

Total # of neighbors = 131
Ave neighs/atom = 0.0456446
Neighbor list builds = 3
Dangerous builds = 0
delete_atoms region delete
Deleted 2 atoms, new total = 2868
Setting up run at Tue Oct  5 09:40:36 2021

WARNING: Energy calculated for multisphere particles is currently not correct (../fix_multisphere.cpp:1312)
Memory usage per processor = 18.6933 Mbytes
    Step    Atoms         KinEng              1          ts[1]          ts[2]         Volume 
   38601     2868    0.016013231              0    0.091379875    0.039847991           0.18 
   38801     2800    0.015751737              0    0.091379875    0.039847991           0.18 
Loop time of 0.0237806 on 4 procs for 200 steps with 2800 atoms, finish time Tue Oct  5 09:40:36 2021


Pair  time (%) = 0.000978025 (4.11269)
Neigh time (%) = 0.0075375 (31.6959)
Comm  time (%) = 0.000856375 (3.60114)
Outpt time (%) = 0.000652275 (2.74288)
Other time (%) = 0.0137565 (57.8473)

Nlocal:    700 ave 980 max 420 min
Histogram: 1 0 0 0 0 2 0 0 0 1
Nghost:    29.5 ave 69 max 0 min
Histogram: 2 0 0 0 0 0 1 0 0 1
Neighs:    33 ave 132 max 0 min
Histogram: 3 0 0 0 0 0 0 0 0 1

Total # of neighbors = 132
Ave neighs/atom = 0.0471429
Neighbor list builds = 3
Dangerous builds = 0
delete_atoms region delete
Deleted 6 atoms, new total = 2794
Setting up run at Tue Oct  5 09:40:36 2021

WARNING: Energy calculated for multisphere particles is currently not correct (../fix_multisphere.cpp:1312)
Memory usage per processor = 18.6928 Mbytes
    Step    Atoms         KinEng              1          ts[1]          ts[2]         Volume 
   38801     2794    0.015697927              0    0.091379875    0.039847991           0.18 
   39000     2730    0.015828895              0    0.091379875    0.038302128           0.18 
   39001     2730    0.015832477              0    0.091379875    0.038302128           0.18 
Loop time of 0.0242711 on 4 procs for 200 steps with 2730 atoms, finish time Tue Oct  5 09:40:37 2021


Pair  time (%) = 0.000964225 (3.97273)
Neigh time (%) = 0.0087824 (36.1846)
Comm  time (%) = 0.00091905 (3.7866)
Outpt time (%) = 0.00072275 (2.97782)
Other time (%) = 0.0128827 (53.0782)

Nlocal:    682.5 ave 910 max 420 min
Histogram: 1 0 0 0 0 2 0 0 0 1
Nghost:    29.5 ave 69 max 0 min
Histogram: 2 0 0 0 0 0 1 0 0 1
Neighs:    32.25 ave 129 max 0 min
Histogram: 3 0 0 0 0 0 0 0 0 1

Total # of neighbors = 129
Ave neighs/atom = 0.0472527
Neighbor list builds = 3
Dangerous builds = 0
delete_atoms region delete
Deleted 0 atoms, new total = 2730
Setting up run at Tue Oct  5 09:40:37 2021

WARNING: Energy calculated for multisphere particles is currently not correct (../fix_multisphere.cpp:1312)
Memory usage per processor = 18.6923 Mbytes
    Step    Atoms         KinEng              1          ts[1]          ts[2]         Volume 
   39001     2730    0.015832477              0    0.091379875    0.038302128           0.18 
INFO: Particle insertion ins: inserted 2 particle templates (mass 2.706807e-03) at step 39201
 - a total of 140 particle templates (mass 1.894765e-01) inserted so far.
   39201     2870    0.016559042              0    0.091379875    0.038302128           0.18 
Loop time of 0.0286293 on 4 procs for 200 steps with 2870 atoms, finish time Tue Oct  5 09:40:37 2021


Pair  time (%) = 0.00099585 (3.47843)
Neigh time (%) = 0.00510062 (17.8161)
Comm  time (%) = 0.0009249 (3.23061)
Outpt time (%) = 0.000639475 (2.23364)
Other time (%) = 0.0209684 (73.2412)

Nlocal:    717.5 ave 910 max 490 min
Histogram: 1 0 0 0 0 1 1 0 0 1
Nghost:    29.5 ave 69 max 0 min
Histogram: 2 0 0 0 0 0 1 0 0 1
Neighs:    31.25 ave 125 max 0 min
Histogram: 3 0 0 0 0 0 0 0 0 1

Total # of neighbors = 125
Ave neighs/atom = 0.043554
Neighbor list builds = 2
Dangerous builds = 0
delete_atoms region delete
Deleted 0 atoms, new total = 2870
Setting up run at Tue Oct  5 09:40:37 2021

WARNING: Energy calculated for multisphere particles is currently not correct (../fix_multisphere.cpp:1312)
Memory usage per processor = 18.6928 Mbytes
    Step    Atoms         KinEng              1          ts[1]          ts[2]         Volume 
   39201     2870    0.016559042              0    0.091379875    0.038302128           0.18 
   39401     2870    0.017306448              0    0.091379875    0.038302128           0.18 
Loop time of 0.0217654 on 4 procs for 200 steps with 2870 atoms, finish time Tue Oct  5 09:40:37 2021


Pair  time (%) = 0.00098115 (4.50785)
Neigh time (%) = 0.00516085 (23.7113)
Comm  time (%) = 0.000876175 (4.02555)
Outpt time (%) = 0.000786 (3.61124)
Other time (%) = 0.0139612 (64.1441)

Nlocal:    717.5 ave 910 max 490 min
Histogram: 1 0 0 0 0 1 1 0 0 1
Nghost:    29.5 ave 69 max 0 min
Histogram: 2 0 0 0 0 0 1 0 0 1
Neighs:    29.5 ave 118 max 0 min
Histogram: 3 0 0 0 0 0 0 0 0 1

Total # of neighbors = 118
Ave neighs/atom = 0.041115
Neighbor list builds = 2
Dangerous builds = 0
delete_atoms region delete
Deleted 0 atoms, new total = 2870
Setting up run at Tue Oct  5 09:40:37 2021

WARNING: Energy calculated for multisphere particles is currently not correct (../fix_multisphere.cpp:1312)
Memory usage per processor = 18.6928 Mbytes
    Step    Atoms         KinEng              1          ts[1]          ts[2]         Volume 
   39401     2870    0.017306448              0    0.091379875    0.038302128           0.18 
INFO: Particle insertion ins: inserted 2 particle templates (mass 2.706807e-03) at step 39601
 - a total of 142 particle templates (mass 1.921833e-01) inserted so far.
   39601     3010    0.018075215              0    0.091379875    0.038302128           0.18 
Loop time of 0.0265635 on 4 procs for 200 steps with 3010 atoms, finish time Tue Oct  5 09:40:37 2021


Pair  time (%) = 0.00107755 (4.05651)
Neigh time (%) = 0.00567455 (21.3622)
Comm  time (%) = 0.0008943 (3.36666)
Outpt time (%) = 0.000839125 (3.15895)
Other time (%) = 0.0180779 (68.0556)

Nlocal:    752.5 ave 980 max 490 min
Histogram: 1 0 0 0 0 2 0 0 0 1
Nghost:    29.5 ave 69 max 0 min
Histogram: 2 0 0 0 0 0 1 0 0 1
Neighs:    28.25 ave 113 max 0 min
Histogram: 3 0 0 0 0 0 0 0 0 1

Total # of neighbors = 113
Ave neighs/atom = 0.0375415
Neighbor list builds = 2
Dangerous builds = 0
delete_atoms region delete
Deleted 0 atoms, new total = 3010
Setting up run at Tue Oct  5 09:40:37 2021

WARNING: Energy calculated for multisphere particles is currently not correct (../fix_multisphere.cpp:1312)
Memory usage per processor = 18.6936 Mbytes
    Step    Atoms         KinEng              1          ts[1]          ts[2]         Volume 
   39601     3010    0.018075215              0    0.091379875    0.038302128           0.18 
INFO: Particle insertion ins: inserted 1 particle templates (mass 1.353404e-03) at step 39801
 - a total of 143 particle templates (mass 1.935367e-01) inserted so far.
   39801     3080    0.018865866              0    0.091379875    0.038302128           0.18 
Loop time of 0.0262247 on 4 procs for 200 steps with 3080 atoms, finish time Tue Oct  5 09:40:37 2021


Pair  time (%) = 0.00101448 (3.8684)
Neigh time (%) = 0.0058931 (22.4716)
Comm  time (%) = 0.000835475 (3.18584)
Outpt time (%) = 0.000702525 (2.67887)
Other time (%) = 0.0177791 (67.7953)

Nlocal:    770 ave 980 max 560 min
Histogram: 1 0 0 0 0 2 0 0 0 1
Nghost:    29.5 ave 69 max 0 min
Histogram: 2 0 0 0 0 0 1 0 0 1
Neighs:    27.25 ave 109 max 0 min
Histogram: 3 0 0 0 0 0 0 0 0 1

Total # of neighbors = 109
Ave neighs/atom = 0.0353896
Neighbor list builds = 2
Dangerous builds = 0
delete_atoms region delete
Deleted 0 atoms, new total = 3080
Setting up run at Tue Oct  5 09:40:37 2021

WARNING: Energy calculated for multisphere particles is currently not correct (../fix_multisphere.cpp:1312)
Memory usage per processor = 18.6939 Mbytes
    Step    Atoms         KinEng              1          ts[1]          ts[2]         Volume 
   39801     3080    0.018865866              0    0.091379875    0.038302128           0.18 
   40000     3080    0.019675057              0    0.091379875     0.03888275           0.18 
Loop time of 0.0204374 on 4 procs for 199 steps with 3080 atoms, finish time Tue Oct  5 09:40:37 2021


Pair  time (%) = 0.00105992 (5.1862)
Neigh time (%) = 0.00330545 (16.1735)
Comm  time (%) = 0.000945 (4.62387)
Outpt time (%) = 0.000731875 (3.58105)
Other time (%) = 0.0143952 (70.4354)

Nlocal:    770 ave 980 max 560 min
Histogram: 1 0 0 0 0 2 0 0 0 1
Nghost:    29.5 ave 69 max 0 min
Histogram: 2 0 0 0 0 0 1 0 0 1
Neighs:    26.75 ave 105 max 0 min
Histogram: 3 0 0 0 0 0 0 0 0 1

Total # of neighbors = 107
Ave neighs/atom = 0.0347403
Neighbor list builds = 1
Dangerous builds = 0
delete_atoms region delete
Deleted 6 atoms, new total = 3074
